<?xml version="1.0"?>
<VTKFile type="UnstructuredGrid"  version="0.1"  >
<UnstructuredGrid>
<Piece  NumberOfPoints="5151" NumberOfCells="10000">
<Points>
<DataArray  type="Float64"  NumberOfComponents="3"  format="ascii">0 0 0  0.02 0 0  0.04 0 0  0.06 0 0  0.08 0 0  0.1 0 0  0.12 0 0  0.14 0 0  0.16 0 0  0.18 0 0  0.2 0 0  0.22 0 0  0.24 0 0  0.26 0 0  0.28 0 0  0.3 0 0  0.32 0 0  0.34 0 0  0.36 0 0  0.38 0 0  0.4 0 0  0.42 0 0  0.44 0 0  0.46 0 0  0.48 0 0  0.5 0 0  0.52 0 0  0.54 0 0  0.5600000000000001 0 0  0.58 0 0  0.6 0 0  0.62 0 0  0.64 0 0  0.66 0 0  0.68 0 0  0.7 0 0  0.72 0 0  0.74 0 0  0.76 0 0  0.78 0 0  0.8 0 0  0.82 0 0  0.84 0 0  0.86 0 0  0.88 0 0  0.9 0 0  0.92 0 0  0.9399999999999999 0 0  0.96 0 0  0.98 0 0  1 0 0  1.02 0 0  1.04 0 0  1.06 0 0  1.08 0 0  1.1 0 0  1.12 0 0  1.14 0 0  1.16 0 0  1.18 0 0  1.2 0 0  1.22 0 0  1.24 0 0  1.26 0 0  1.28 0 0  1.3 0 0  1.32 0 0  1.34 0 0  1.36 0 0  1.38 0 0  1.4 0 0  1.42 0 0  1.44 0 0  1.46 0 0  1.48 0 0  1.5 0 0  1.52 0 0  1.54 0 0  1.56 0 0  1.58 0 0  1.6 0 0  1.62 0 0  1.64 0 0  1.66 0 0  1.68 0 0  1.7 0 0  1.72 0 0  1.74 0 0  1.76 0 0  1.78 0 0  1.8 0 0  1.82 0 0  1.84 0 0  1.86 0 0  1.88 0 0  1.9 0 0  1.92 0 0  1.94 0 0  1.96 0 0  1.98 0 0  2 0 0  0 0.02 0  0.02 0.02 0  0.04 0.02 0  0.06 0.02 0  0.08 0.02 0  0.1 0.02 0  0.12 0.02 0  0.14 0.02 0  0.16 0.02 0  0.18 0.02 0  0.2 0.02 0  0.22 0.02 0  0.24 0.02 0  0.26 0.02 0  0.28 0.02 0  0.3 0.02 0  0.32 0.02 0  0.34 0.02 0  0.36 0.02 0  0.38 0.02 0  0.4 0.02 0  0.42 0.02 0  0.44 0.02 0  0.46 0.02 0  0.48 0.02 0  0.5 0.02 0  0.52 0.02 0  0.54 0.02 0  0.5600000000000001 0.02 0  0.58 0.02 0  0.6 0.02 0  0.62 0.02 0  0.64 0.02 0  0.66 0.02 0  0.68 0.02 0  0.7 0.02 0  0.72 0.02 0  0.74 0.02 0  0.76 0.02 0  0.78 0.02 0  0.8 0.02 0  0.82 0.02 0  0.84 0.02 0  0.86 0.02 0  0.88 0.02 0  0.9 0.02 0  0.92 0.02 0  0.9399999999999999 0.02 0  0.96 0.02 0  0.98 0.02 0  1 0.02 0  1.02 0.02 0  1.04 0.02 0  1.06 0.02 0  1.08 0.02 0  1.1 0.02 0  1.12 0.02 0  1.14 0.02 0  1.16 0.02 0  1.18 0.02 0  1.2 0.02 0  1.22 0.02 0  1.24 0.02 0  1.26 0.02 0  1.28 0.02 0  1.3 0.02 0  1.32 0.02 0  1.34 0.02 0  1.36 0.02 0  1.38 0.02 0  1.4 0.02 0  1.42 0.02 0  1.44 0.02 0  1.46 0.02 0  1.48 0.02 0  1.5 0.02 0  1.52 0.02 0  1.54 0.02 0  1.56 0.02 0  1.58 0.02 0  1.6 0.02 0  1.62 0.02 0  1.64 0.02 0  1.66 0.02 0  1.68 0.02 0  1.7 0.02 0  1.72 0.02 0  1.74 0.02 0  1.76 0.02 0  1.78 0.02 0  1.8 0.02 0  1.82 0.02 0  1.84 0.02 0  1.86 0.02 0  1.88 0.02 0  1.9 0.02 0  1.92 0.02 0  1.94 0.02 0  1.96 0.02 0  1.98 0.02 0  2 0.02 0  0 0.04 0  0.02 0.04 0  0.04 0.04 0  0.06 0.04 0  0.08 0.04 0  0.1 0.04 0  0.12 0.04 0  0.14 0.04 0  0.16 0.04 0  0.18 0.04 0  0.2 0.04 0  0.22 0.04 0  0.24 0.04 0  0.26 0.04 0  0.28 0.04 0  0.3 0.04 0  0.32 0.04 0  0.34 0.04 0  0.36 0.04 0  0.38 0.04 0  0.4 0.04 0  0.42 0.04 0  0.44 0.04 0  0.46 0.04 0  0.48 0.04 0  0.5 0.04 0  0.52 0.04 0  0.54 0.04 0  0.5600000000000001 0.04 0  0.58 0.04 0  0.6 0.04 0  0.62 0.04 0  0.64 0.04 0  0.66 0.04 0  0.68 0.04 0  0.7 0.04 0  0.72 0.04 0  0.74 0.04 0  0.76 0.04 0  0.78 0.04 0  0.8 0.04 0  0.82 0.04 0  0.84 0.04 0  0.86 0.04 0  0.88 0.04 0  0.9 0.04 0  0.92 0.04 0  0.9399999999999999 0.04 0  0.96 0.04 0  0.98 0.04 0  1 0.04 0  1.02 0.04 0  1.04 0.04 0  1.06 0.04 0  1.08 0.04 0  1.1 0.04 0  1.12 0.04 0  1.14 0.04 0  1.16 0.04 0  1.18 0.04 0  1.2 0.04 0  1.22 0.04 0  1.24 0.04 0  1.26 0.04 0  1.28 0.04 0  1.3 0.04 0  1.32 0.04 0  1.34 0.04 0  1.36 0.04 0  1.38 0.04 0  1.4 0.04 0  1.42 0.04 0  1.44 0.04 0  1.46 0.04 0  1.48 0.04 0  1.5 0.04 0  1.52 0.04 0  1.54 0.04 0  1.56 0.04 0  1.58 0.04 0  1.6 0.04 0  1.62 0.04 0  1.64 0.04 0  1.66 0.04 0  1.68 0.04 0  1.7 0.04 0  1.72 0.04 0  1.74 0.04 0  1.76 0.04 0  1.78 0.04 0  1.8 0.04 0  1.82 0.04 0  1.84 0.04 0  1.86 0.04 0  1.88 0.04 0  1.9 0.04 0  1.92 0.04 0  1.94 0.04 0  1.96 0.04 0  1.98 0.04 0  2 0.04 0  0 0.06 0  0.02 0.06 0  0.04 0.06 0  0.06 0.06 0  0.08 0.06 0  0.1 0.06 0  0.12 0.06 0  0.14 0.06 0  0.16 0.06 0  0.18 0.06 0  0.2 0.06 0  0.22 0.06 0  0.24 0.06 0  0.26 0.06 0  0.28 0.06 0  0.3 0.06 0  0.32 0.06 0  0.34 0.06 0  0.36 0.06 0  0.38 0.06 0  0.4 0.06 0  0.42 0.06 0  0.44 0.06 0  0.46 0.06 0  0.48 0.06 0  0.5 0.06 0  0.52 0.06 0  0.54 0.06 0  0.5600000000000001 0.06 0  0.58 0.06 0  0.6 0.06 0  0.62 0.06 0  0.64 0.06 0  0.66 0.06 0  0.68 0.06 0  0.7 0.06 0  0.72 0.06 0  0.74 0.06 0  0.76 0.06 0  0.78 0.06 0  0.8 0.06 0  0.82 0.06 0  0.84 0.06 0  0.86 0.06 0  0.88 0.06 0  0.9 0.06 0  0.92 0.06 0  0.9399999999999999 0.06 0  0.96 0.06 0  0.98 0.06 0  1 0.06 0  1.02 0.06 0  1.04 0.06 0  1.06 0.06 0  1.08 0.06 0  1.1 0.06 0  1.12 0.06 0  1.14 0.06 0  1.16 0.06 0  1.18 0.06 0  1.2 0.06 0  1.22 0.06 0  1.24 0.06 0  1.26 0.06 0  1.28 0.06 0  1.3 0.06 0  1.32 0.06 0  1.34 0.06 0  1.36 0.06 0  1.38 0.06 0  1.4 0.06 0  1.42 0.06 0  1.44 0.06 0  1.46 0.06 0  1.48 0.06 0  1.5 0.06 0  1.52 0.06 0  1.54 0.06 0  1.56 0.06 0  1.58 0.06 0  1.6 0.06 0  1.62 0.06 0  1.64 0.06 0  1.66 0.06 0  1.68 0.06 0  1.7 0.06 0  1.72 0.06 0  1.74 0.06 0  1.76 0.06 0  1.78 0.06 0  1.8 0.06 0  1.82 0.06 0  1.84 0.06 0  1.86 0.06 0  1.88 0.06 0  1.9 0.06 0  1.92 0.06 0  1.94 0.06 0  1.96 0.06 0  1.98 0.06 0  2 0.06 0  0 0.08 0  0.02 0.08 0  0.04 0.08 0  0.06 0.08 0  0.08 0.08 0  0.1 0.08 0  0.12 0.08 0  0.14 0.08 0  0.16 0.08 0  0.18 0.08 0  0.2 0.08 0  0.22 0.08 0  0.24 0.08 0  0.26 0.08 0  0.28 0.08 0  0.3 0.08 0  0.32 0.08 0  0.34 0.08 0  0.36 0.08 0  0.38 0.08 0  0.4 0.08 0  0.42 0.08 0  0.44 0.08 0  0.46 0.08 0  0.48 0.08 0  0.5 0.08 0  0.52 0.08 0  0.54 0.08 0  0.5600000000000001 0.08 0  0.58 0.08 0  0.6 0.08 0  0.62 0.08 0  0.64 0.08 0  0.66 0.08 0  0.68 0.08 0  0.7 0.08 0  0.72 0.08 0  0.74 0.08 0  0.76 0.08 0  0.78 0.08 0  0.8 0.08 0  0.82 0.08 0  0.84 0.08 0  0.86 0.08 0  0.88 0.08 0  0.9 0.08 0  0.92 0.08 0  0.9399999999999999 0.08 0  0.96 0.08 0  0.98 0.08 0  1 0.08 0  1.02 0.08 0  1.04 0.08 0  1.06 0.08 0  1.08 0.08 0  1.1 0.08 0  1.12 0.08 0  1.14 0.08 0  1.16 0.08 0  1.18 0.08 0  1.2 0.08 0  1.22 0.08 0  1.24 0.08 0  1.26 0.08 0  1.28 0.08 0  1.3 0.08 0  1.32 0.08 0  1.34 0.08 0  1.36 0.08 0  1.38 0.08 0  1.4 0.08 0  1.42 0.08 0  1.44 0.08 0  1.46 0.08 0  1.48 0.08 0  1.5 0.08 0  1.52 0.08 0  1.54 0.08 0  1.56 0.08 0  1.58 0.08 0  1.6 0.08 0  1.62 0.08 0  1.64 0.08 0  1.66 0.08 0  1.68 0.08 0  1.7 0.08 0  1.72 0.08 0  1.74 0.08 0  1.76 0.08 0  1.78 0.08 0  1.8 0.08 0  1.82 0.08 0  1.84 0.08 0  1.86 0.08 0  1.88 0.08 0  1.9 0.08 0  1.92 0.08 0  1.94 0.08 0  1.96 0.08 0  1.98 0.08 0  2 0.08 0  0 0.1 0  0.02 0.1 0  0.04 0.1 0  0.06 0.1 0  0.08 0.1 0  0.1 0.1 0  0.12 0.1 0  0.14 0.1 0  0.16 0.1 0  0.18 0.1 0  0.2 0.1 0  0.22 0.1 0  0.24 0.1 0  0.26 0.1 0  0.28 0.1 0  0.3 0.1 0  0.32 0.1 0  0.34 0.1 0  0.36 0.1 0  0.38 0.1 0  0.4 0.1 0  0.42 0.1 0  0.44 0.1 0  0.46 0.1 0  0.48 0.1 0  0.5 0.1 0  0.52 0.1 0  0.54 0.1 0  0.5600000000000001 0.1 0  0.58 0.1 0  0.6 0.1 0  0.62 0.1 0  0.64 0.1 0  0.66 0.1 0  0.68 0.1 0  0.7 0.1 0  0.72 0.1 0  0.74 0.1 0  0.76 0.1 0  0.78 0.1 0  0.8 0.1 0  0.82 0.1 0  0.84 0.1 0  0.86 0.1 0  0.88 0.1 0  0.9 0.1 0  0.92 0.1 0  0.9399999999999999 0.1 0  0.96 0.1 0  0.98 0.1 0  1 0.1 0  1.02 0.1 0  1.04 0.1 0  1.06 0.1 0  1.08 0.1 0  1.1 0.1 0  1.12 0.1 0  1.14 0.1 0  1.16 0.1 0  1.18 0.1 0  1.2 0.1 0  1.22 0.1 0  1.24 0.1 0  1.26 0.1 0  1.28 0.1 0  1.3 0.1 0  1.32 0.1 0  1.34 0.1 0  1.36 0.1 0  1.38 0.1 0  1.4 0.1 0  1.42 0.1 0  1.44 0.1 0  1.46 0.1 0  1.48 0.1 0  1.5 0.1 0  1.52 0.1 0  1.54 0.1 0  1.56 0.1 0  1.58 0.1 0  1.6 0.1 0  1.62 0.1 0  1.64 0.1 0  1.66 0.1 0  1.68 0.1 0  1.7 0.1 0  1.72 0.1 0  1.74 0.1 0  1.76 0.1 0  1.78 0.1 0  1.8 0.1 0  1.82 0.1 0  1.84 0.1 0  1.86 0.1 0  1.88 0.1 0  1.9 0.1 0  1.92 0.1 0  1.94 0.1 0  1.96 0.1 0  1.98 0.1 0  2 0.1 0  0 0.12 0  0.02 0.12 0  0.04 0.12 0  0.06 0.12 0  0.08 0.12 0  0.1 0.12 0  0.12 0.12 0  0.14 0.12 0  0.16 0.12 0  0.18 0.12 0  0.2 0.12 0  0.22 0.12 0  0.24 0.12 0  0.26 0.12 0  0.28 0.12 0  0.3 0.12 0  0.32 0.12 0  0.34 0.12 0  0.36 0.12 0  0.38 0.12 0  0.4 0.12 0  0.42 0.12 0  0.44 0.12 0  0.46 0.12 0  0.48 0.12 0  0.5 0.12 0  0.52 0.12 0  0.54 0.12 0  0.5600000000000001 0.12 0  0.58 0.12 0  0.6 0.12 0  0.62 0.12 0  0.64 0.12 0  0.66 0.12 0  0.68 0.12 0  0.7 0.12 0  0.72 0.12 0  0.74 0.12 0  0.76 0.12 0  0.78 0.12 0  0.8 0.12 0  0.82 0.12 0  0.84 0.12 0  0.86 0.12 0  0.88 0.12 0  0.9 0.12 0  0.92 0.12 0  0.9399999999999999 0.12 0  0.96 0.12 0  0.98 0.12 0  1 0.12 0  1.02 0.12 0  1.04 0.12 0  1.06 0.12 0  1.08 0.12 0  1.1 0.12 0  1.12 0.12 0  1.14 0.12 0  1.16 0.12 0  1.18 0.12 0  1.2 0.12 0  1.22 0.12 0  1.24 0.12 0  1.26 0.12 0  1.28 0.12 0  1.3 0.12 0  1.32 0.12 0  1.34 0.12 0  1.36 0.12 0  1.38 0.12 0  1.4 0.12 0  1.42 0.12 0  1.44 0.12 0  1.46 0.12 0  1.48 0.12 0  1.5 0.12 0  1.52 0.12 0  1.54 0.12 0  1.56 0.12 0  1.58 0.12 0  1.6 0.12 0  1.62 0.12 0  1.64 0.12 0  1.66 0.12 0  1.68 0.12 0  1.7 0.12 0  1.72 0.12 0  1.74 0.12 0  1.76 0.12 0  1.78 0.12 0  1.8 0.12 0  1.82 0.12 0  1.84 0.12 0  1.86 0.12 0  1.88 0.12 0  1.9 0.12 0  1.92 0.12 0  1.94 0.12 0  1.96 0.12 0  1.98 0.12 0  2 0.12 0  0 0.14 0  0.02 0.14 0  0.04 0.14 0  0.06 0.14 0  0.08 0.14 0  0.1 0.14 0  0.12 0.14 0  0.14 0.14 0  0.16 0.14 0  0.18 0.14 0  0.2 0.14 0  0.22 0.14 0  0.24 0.14 0  0.26 0.14 0  0.28 0.14 0  0.3 0.14 0  0.32 0.14 0  0.34 0.14 0  0.36 0.14 0  0.38 0.14 0  0.4 0.14 0  0.42 0.14 0  0.44 0.14 0  0.46 0.14 0  0.48 0.14 0  0.5 0.14 0  0.52 0.14 0  0.54 0.14 0  0.5600000000000001 0.14 0  0.58 0.14 0  0.6 0.14 0  0.62 0.14 0  0.64 0.14 0  0.66 0.14 0  0.68 0.14 0  0.7 0.14 0  0.72 0.14 0  0.74 0.14 0  0.76 0.14 0  0.78 0.14 0  0.8 0.14 0  0.82 0.14 0  0.84 0.14 0  0.86 0.14 0  0.88 0.14 0  0.9 0.14 0  0.92 0.14 0  0.9399999999999999 0.14 0  0.96 0.14 0  0.98 0.14 0  1 0.14 0  1.02 0.14 0  1.04 0.14 0  1.06 0.14 0  1.08 0.14 0  1.1 0.14 0  1.12 0.14 0  1.14 0.14 0  1.16 0.14 0  1.18 0.14 0  1.2 0.14 0  1.22 0.14 0  1.24 0.14 0  1.26 0.14 0  1.28 0.14 0  1.3 0.14 0  1.32 0.14 0  1.34 0.14 0  1.36 0.14 0  1.38 0.14 0  1.4 0.14 0  1.42 0.14 0  1.44 0.14 0  1.46 0.14 0  1.48 0.14 0  1
[...]
<PointData  Scalars="f_7645283"> 
<DataArray  type="Float64"  Name="f_7645283"  format="ascii">7.0819062717121057e-03  3.8341172152728756e-03  3.8341172162400967e-03  3.8341172180400528e-03  3.8341172210623678e-03  3.8341172258475218e-03  3.8341172330919699e-03  3.8341172436319338e-03  3.8341172584121382e-03  3.8341172784527120e-03  3.8341173048411820e-03  3.8341173388043311e-03  3.8341173819644654e-03  3.8341174369664354e-03  3.8341175087841031e-03  3.8341176071658152e-03  3.8341177507850949e-03  3.8341179735227691e-03  3.8341183325591166e-03  3.8341189162227718e-03  3.8341198473506675e-03  3.8341212784643993e-03  3.8341233841534864e-03  3.8341263654729390e-03  3.8341304548339880e-03  3.8341359285259356e-03  3.8341432951054543e-03  3.8341536897233412e-03  3.8341689713892362e-03  3.8341911695943028e-03  3.8342216098174718e-03  3.8342601105188683e-03  3.8343046155753483e-03  3.8343516458999530e-03  3.8343974584006705e-03  3.8344391435906448e-03  3.8344751333314500e-03  3.8345051395357330e-03  3.8345298007673870e-03  3.8345502777538429e-03  3.8345679169538046e-03  3.8345840123936246e-03  3.8345996564268891e-03  3.8346156596651315e-03  3.8346325210624537e-03  3.8346504325264281e-03  3.8346693055919855e-03  3.8346888094434387e-03  3.8347084087928997e-03  3.8347273860513649e-03  3.8347448261849583e-03  3.8347595407592057e-03  3.8347699227733842e-03  3.8347737724482465e-03  3.8347682218488484e-03  3.8347499785287265e-03  3.8347161012991342e-03  3.8346652734867408e-03  3.8345990544939165e-03  3.8345222701184770e-03  3.8344420423315202e-03  3.8343658049016169e-03  3.8342993163872239e-03  3.8342455971359353e-03  3.8342050066667893e-03  3.8341760532852858e-03  3.8341563721676101e-03  3.8341434951171286e-03  3.8341352917647784e-03  3.8341301301962911e-03  3.8341268633097264e-03  3.8341247369804545e-03  3.8341232820365660e-03  3.8341222202223722e-03  3.8341213935102437e-03  3.8341207156520488e-03  3.8341201411221815e-03  3.8341196462665346e-03  3.8341192184239287e-03  3.8341188499773251e-03  3.8341185353127473e-03  3.8341182694152059e-03  3.8341180473371187e-03  3.8341178640969461e-03  3.8341177147603292e-03  3.8341175945736682e-03  3.8341174990869299e-03  3.8341174242406749e-03  3.8341173664129722e-03  3.8341173224316002e-03  3.8341172895607128e-03  3.8341172654714653e-03  3.8341172482048006e-03  3.8341172361327498e-03  3.8341172279220633e-03  3.8341172225027113e-03  3.8341172190403173e-03  3.8341172169117019e-03  3.8341172156821286e-03  3.8341172150837496e-03  8.0516667449212154e-02  3.8341172152260464e-03  1.8547376466461758e-03  1.8547376467073582e-03  1.8547376468256509e-03  1.8547376470312560e-03  1.8547376473717337e-03  1.8547376479203337e-03  1.8547376487889049e-03  1.8547376501483965e-03  1.8547376522625499e-03  1.8547376555450362e-03  1.8547376606593922e-03  1.8547376686992992e-03  1.8547376815212144e-03  1.8547377023628731e-03  1.8547377369774179e-03  1.8547377956271210e-03  1.8547378963165002e-03  1.8547380693429794e-03  1.8547383621945958e-03  1.8547388420634301e-03  1.8547395927636331e-03  1.8547407091333203e-03  1.8547423016759984e-03  1.8547444964018282e-03  1.8547474104184121e-03  1.8547512564260366e-03  1.8547566725633695e-03  1.8547648535052917e-03  1.8547771704319777e-03  1.8547945852692674e-03  1.8548171052500655e-03  1.8548434820649820e-03  1.8548714804180757e-03  1.8548986927667361e-03  1.8549232898327837e-03  1.8549443296475929e-03  1.8549616809578583e-03  1.8549757749761349e-03  1.8549873453602467e-03  1.8549972231875077e-03  1.8550061970489199e-03  1.8550149277569465e-03  1.8550239039079649e-03  1.8550334264711909e-03  1.8550436131621604e-03  1.8550544155258456e-03  1.8550656429966589e-03  1.8550769880203771e-03  1.8550880437783789e-03  1.8550983012636086e-03  1.8551071084529727e-03  1.8551135791015127e-03  1.8551164649397536e-03  1.8551140627314114e-03  1.8551043034930582e-03  1.8550851986428548e-03  1.8550556769023228e-03  1.8550164869902191e-03  1.8549705509072647e-03  1.8549223651024842e-03  1.8548766661313386e-03  1.8548370839056405e-03  1.8548054502237814e-03  1.8547818917156989e-03  1.8547653934884510e-03  1.8547544407003466e-03  1.8547474988625818e-03  1.8547432726735650e-03  1.8547407879846030e-03  1.8547393705236094e-03  1.8547385824201853e-03  1.8547381534710769e-03  1.8547379237897231e-03  1.8547378020381626e-03  1.8547377375786123e-03  1.8547377030536244e-03  1.8547376840111307e-03  1.8547376729632203e-03  1.8547376660923902e-03  1.8547376614750553e-03  1.8547376581461456e-03  1.8547376556171367e-03  1.8547376536328587e-03  1.8547376520512125e-03  1.8547376507848739e-03  1.8547376497737508e-03  1.8547376489721819e-03  1.8547376483431127e-03  1.8547376478554199e-03  1.8547376474826291e-03  1.8547376472021961e-03  1.8547376469950309e-03  1.8547376468451234e-03  1.8547376467391717e-03  1.8547376466663346e-03  1.8547376466179473e-03  1.8547376465872108e-03  1.8547376465690092e-03  1.8547376465597697e-03  3.8341172150666669e-03  3.8341172160361089e-03  1.8547376467017772e-03  1.8547376467962693e-03  1.8547376469761701e-03  1.8547376472843765e-03  1.8547376477898725e-03  1.8547376486022498e-03  1.8547376498954603e-03  1.8547376519456255e-03  1.8547376551915685e-03  1.8547376603334667e-03  1.8547376684983931e-03  1.8547376815299880e-03  1.8547377025196379e-03  1.8547377368187722e-03  1.8547377939996711e-03  1.8547378915883519e-03  1.8547380617442042e-03  1.8547383617721919e-03  1.8547388868527419e-03  1.8547397773367911e-03  1.8547412073628500e-03  1.8547433616161002e-03  1.8547464615596651e-03  1.8547507688794007e-03  1.8547563749383824e-03  1.8547633811021344e-03  1.8547730490760333e-03  1.8547883024792574e-03  1.8548125421166684e-03  1.8548481716938018e-03  1.8548952869322851e-03  1.8549508095674688e-03  1.8550092185068440e-03  1.8550649200783993e-03  1.8551140972148509e-03  1.8551551596186228e-03  1.8551882849344049e-03  1.8552147240660083e-03  1.8552362140282271e-03  1.8552545726684719e-03  1.8552714460761239e-03  1.8552881654893948e-03  1.8553056803194481e-03  1.8553245435485406e-03  1.8553449322103142e-03  1.8553666903800437e-03  1.8553893853732544e-03  1.8554123679438649e-03  1.8554348211883146e-03  1.8554557688758560e-03  1.8554739967621796e-03  1.8554878383061789e-03  1.8554948250146023e-03  1.8554913436689968e-03  1.8554726751964035e-03  1.8554339558643721e-03  1.8553723057974274e-03  1.8552892869985725e-03  1.8551918711645010e-03  1.8550907689222900e-03  1.8549968445098221e-03  1.8549177605912540e-03  1.8548566392489903e-03  1.8548127570099371e-03  1.8547831760842724e-03  1.8547642801562928e-03  1.8547527517335368e-03  1.8547459891834794e-03  1.8547421533934823e-03  1.8547400392597024e-03  1.8547389020459417e-03  1.8547383025528052e-03  1.8547379914856765e-03  1.8547378317707037e-03  1.8547377500320330e-03  1.8547377078797700e-03  1.8547376856204011e-03  1.8547376733218104e-03  1.8547376660464909e-03  1.8547376613671060e-03  1.8547376580974159e-03  1.8547376556555114e-03  1.8547376537497353e-03  1.8547376522262660e-03  1.8547376509963989e-03  1.8547376500026042e-03  1.8547376492029587e-03  1.8547376485641646e-03  1.8547376480584636e-03  1.8547376476622467e-03  1.8547376473553707e-03  1.8547376471207480e-03  1.8547376469440456e-03  1.8547376468133531e-03  1.8547376467189379e-03  1.8547376466529310e-03  1.8547376466089528e-03  1.8547376465819247e-03  1.8547376465679923e-03  3.8341172155876187e-03  3.8341172174610220e-03  1.8547376468058944e-03  1.8547376469602150e-03  1.8547376472503201e-03  1.8547376477458508e-03  1.8547376485642695e-03  1.8547376498995875e-03  1.8547376520702957e-03  1.8547376555957899e-03  1.8547376613163868e-03  1.8547376705818968e-03  1.8547376855533367e-03  1.8547377097067514e-03  1.8547377487317367e-03  1.8547378122574462e-03  1.8547379173646412e-03  1.8547380958677867e-03  1.8547384089069524e-03  1.8547389732365312e-03  1.8547399984348112e-03  1.8547418144481318e-03  1.8547448326124182e-03  1.8547494379138978e-03  1.8547561312904507e-03  1.8547656681072295e-03  1.8547779397355304e-03  1.8547919938515726e-03  1.8548103884729748e-03  1.8548411656599266e-03  1.8548935888564734e-03  1.8549742884051866e-03  1.8550839631013619e-03  1.8552143878957114e-03  1.8553503928400521e-03  1.8554775774645010e-03  1.8555872433566366e-03  1.8556766884889344e-03  1.8557473423618960e-03  1.8558028076660518e-03  1.8558474785011997e-03  1.8558856927710699e-03  1.8559212410054959e-03  1.8559571039386551e-03  1.8559953438420378e-03  1.8560371009442079e-03  1.8560826594622563e-03  1.8561315580911376e-03  1.8561827288608957e-03  1.8562346510133830e-03  1.8562854929864766e-03  1.8563331761996204e-03  1.8563752334336942e-03  1.8564082924567647e-03  1.8564270922536812e-03  1.8564232910376760e-03  1.8563850499475185e-03  1.8562991467638026e-03  1.8561568842867515e-03  1.8559615327632885e-03  1.8557313723061818e-03  1.8554946972068665e-03  1.8552792483652542e-03  1.8551029478024220e-03  1.8549712415976147e-03  1.8548801287929097e-03  1.8548210389299335e-03  1.8547847400145524e-03  1.8547634363538679e-03  1.8547514054365506e-03  1.8547448285327010e-03  1.8547413305698500e-03  1.8547395126496057e-03  1.8547385857918552e-03  1.8547381204047264e-03  1.8547378892662409e-03  1.8547377750629001e-03  1.8547377184462695e-03  1.8547376899067287e-03  1.8547376749864725e-03  1.8547376666904060e-03  1.8547376616682566e-03  1.8547376583261032e-03  1.8547376559058587e-03  1.8547376540426195e-03  1.8547376525545087e-03  1.8547376513441882e-03  1.8547376503535006e-03  1.8547376495428917e-03  1.8547376488822810e-03  1.8547376483471008e-03  1.8547376479165940e-03  1.8547376475730540e-03  1.8547376473014342e-03  1.8547376470890889e-03  1.8547376469254700e-03  1.8547376468018959e-03  1.8547376467112409e-03  1.8547376466476087e-03  1.8547376466062707e-03  1.8547376465837978e-03  3.8341172166355833e-03  3.8341172196904964e-03  1.8547376469805676e-03  1.8547376472321576e-03  1.8547376477055940e-03  1.8547376485236948e-03  1.8547376499039895e-03  1.8547376522182347e-03  1.8547376560920259e-03  1.8547376625638924e-03  1.8547376733323052e-03  1.8547376911331064e-03  1.8547377203158456e-03  1.8547377677473205e-03  1.8547378443243994e-03  1.8547379677863376e-03  1.8547381685754230e-03  1.8547385030522926e-03  1.8547390836991789e-03  1.8547401434315268e-03  1.8547421458101178e-03  1.8547458978134279e-03  1.8547524286682401e-03  1.8547624474553619e-03  1.8547769718041274e-03  1.8547988128051478e-03  1.8548274485161976e-03  1.8548562675038793e-03  1.8548897237198065e-03  1.8549511993433178e-03  1.8550661267661946e-03  1.8552528327260777e-03  1.8555149168297965e-03  1.8558299790478107e-03  1.8561546379228877e-03  1.8564512135703997e-03  1.8567003951060253e-03  1.8568988085218897e-03  1.8570523645181111e-03  1.8571710624941109e-03  1.8572659403792284e-03  1.8573473961116375e-03  1.8574242566766952e-03  1.8575032983671356e-03  1.8575890777457549e-03  1.8576839790573228e-03  1.8577884027750906e-03  1.8579010420333671e-03  1.8580192199831136e-03  1.8581392768758835e-03  1.8582569707247232e-03  1.8583677527059350e-03  1.8584665864331169e-03  1.8585467747330850e-03  1.8585972932678384e-03  1.8585989177070104e-03  1.8585215745063645e-03  1.8583284910468094e-03  1.8579928844737921e-03  1.8575212310473679e-03  1.8569629882430165e-03  1.8563951597094400e-03  1.8558902781901812e-03  1.8554902754797497e-03  1.8552024517004204e-03  1.8550111511313194e-03  1.8548920465712201e-03  1.8548217840934939e-03  1.8547821447477330e-03  1.8547605962229449e-03  1.8547492385539532e-03  1.8547434044435568e-03  1.8547404711334462e-03  1.8547390220871956e-03  1.8547383162936053e-03  1.8547379760829883e-03  1.8547378130503093e-03  1.8547377348634496e-03  1.8547376969401705e-03  1.8547376780212752e-03  1.8547376680750868e-03  1.8547376624083582e-03  1.8547376588388940e-03  1.8547376563540952e-03  1.8547376544812005e-03  1.8547376529944658e-03  1.8547376517803224e-03  1.8547376507760717e-03  1.8547376499423412e-03  1.8547376492509399e-03  1.8547376486796161e-03  1.8547376482098382e-03  1.8547376478258528e-03  1.8547376475142505e-03  1.8547376472636968e-03  1.8547376470646536e-03  1.8547376469091631e-03  1.8547376467906071e-03  1.8547376467035249e-03  1.8547376466438318e-03  1.8547376466093424e-03  3.8341172183811024e-03  3.8341172229442427e-03  1.8547376472601781e-03  1.8547376476666234e-03  1.8547376484438268e-03  1.8547376498192899e-03  1.8547376522097050e-03  1.8547376563458669e-03  1.8547376634820856e-03  1.8547376757319777e-03  1.8547376965885641e-03  1.8547377317068821e-03  1.8547377900563935e-03  1.8547378856097309e-03  1.8547380398973639e-03  1.8547382862702441e-03  1.8547386783617575e-03  1.8547393103749052e-03  1.8547403715073578e-03  1.8547422905390639e-03  1.8547460392859647e-03  1.8547535189485178e-03  1.8547672253237460e-03  1.8547875083258644e-03  1.8548133955183660e-03  2.8024788845678350e-03  3.8349701556863957e-03  2.8027799229357608e-03  1.8550478034994405e-03  1.8551683887138696e-03  1.8554202181548501e-03  1.8558538411318664e-03  1.8564869389501699e-03  1.8572585457049531e-03  1.8580399677975675e-03  1.8587331050067411e-03  1.8592986678050423e-03  1.8597379085390610e-03  1.8600710678639413e-03  1.8603248592380553e-03  1.8605265032047959e-03  1.8607007054216051e-03  1.8608679491493678e-03  1.8610436205525754e-03  1.8612377725894351e-03  1.8614553465791995e-03  1.8616966800414656e-03  1.8619581802507550e-03  1.8622331210134497e-03  1.8625125875837054e-03  1.8627865676553151e-03  1.8630449410847265e-03  1.8632775653026124e-03  1.8634718823686484e-03  1.8636060514181699e-03  1.8636370125422656e-03  1.8634887311927179e-03  1.8630576952847738e-03  1.8622603851914683e-03  1.8611080670129943e-03  1.8597378422198557e-03  1.8583635013640744e-03  1.8571765856526820e-03  1.8562719804359014e-03  1.8556488620436722e-03  1.8552530589351570e-03  1.8550175037928185e-03  1.8548845092567156e-03  1.8548125656888148e-03  1.8547749825538447e-03  1.8547559016288023e-03  1.8547464379142075e-03  1.8547418328125555e-03  1.8547396262854825e-03  1.8547385818498408e-03  1.8547380918988595e-03  1.8547378632610277e-03  1.8547377565661834e-03  1.8547377063582026e-03  1.8547376821992307e-03  1.8547376700500701e-03  1.8547376634774346e-03  1.8547376595472835e-03  1.8547376569240247e-03  1.8547376549975041e-03  1.8547376534847398e-03  1.8547376522494189e-03  1.8547376512208175e-03  1.8547376503576796e-03  1.8547376496323524e-03  1.8547376490239444e-03  1.8547376485154267e-03  1.8547376480924165e-03  1.8547376477426390e-03  1.8547376474556303e-03  1.8547376472224577e-03  1.8547376470355560e-03  1.8547376468885917e-03  1.8547376467765110e-03  1.8547376466961343e-03  1.8547376466471932e-03  3.8341172210777253e-03  3.8341172274548958e-03  1.8547376476981603e-03  1.8547376483538671e-03  1.8547376496412713e-03  1.8547376519906672e-03  1.8547376562064672e-03  1.8547376637285634e-03  1.8547376770731375e-03  1.8547377005459905e-03  1.8547377413547831e-03  1.8547378112809556e-03  1.8547379291014654e-03  1.8547381239728735e-03  1.8547384400277958e-03  1.8547389426421402e-03  1.8547397280609494e-03  1.8547409443223986e-03  1.8547428597684734e-03  1.8547461228357737e-03  1.8547523778113901e-03  1.8547645205916037e-03  2.8023275081521691e-03  3.8345176547073950e-03  3.8346842409154383e-03  7.0835950376091361e-03  4.9175481033668966e-01  4.9695621134043055e-01  7.0869823115380258e-03  3.8377755886385605e-03  2.8053259515290938e-03  1.8571210908657557e-03  1.8586678551331122e-03  1.8605860269948335e-03  1.8624778285937368e-03  1.8640943706611970e-03  1.8653711754797989e-03  1.8663383380007111e-03  1.8670579538959174e-03  1.8675986753022289e-03  1.8680263951076975e-03  1.8683993717025461e-03  1.8687650177258435e-03  1.8691582316432303e-03  1.8696011433929102e-03  1.8701038675320747e-03  1.8706658297428704e-03  1.8712773725006438e-03  1.8719215765166169e-03  1.8725764835001704e-03  1.8732179587900540e-03  1.8738229088629101e-03  1.8743710771334794e-03  1.8748411187393299e-03  1.8751940681478831e-03  1.8753382881750440e-03  1.8750838169666766e-03  1.8741351708779323e-03  1.8722272924053241e-03  1.8693745734664048e-03  1.8659688060296974e-03  1.8626168180802577e-03  1.8598283474391799e-03  1.8578025268614676e-03  1.8564777676676959e-03  1.8556791741768147e-03  1.8552274505976760e-03  1.8549844508079453e-03  1.8548588402546246e-03  1.8547959387476107e-03  1.8547652270138569e-03  1.8547505313420607e-03  1.8547436110523583e-03  1.8547403929128300e-03  1.8547389106455521e-03  1.8547382325068108e-03  1.8547379233724837e-03  1.8547377823582151e-03  1.8547377175532208e-03  1.8547376872005551e-03  1.8547376724322969e-03  1.8547376647577219e-03  1.8547376603661751e-03  1.8547376575485100e-03  1.8547376555356652e-03  1.8547376539775704e-03  1.8547376527102031e-03  1.8547376516520155e-03  1.8547376507581101e-03  1.8547376500001648e-03  1.8547376493577576e-03  1.8547376488146675e-03  1.8547376483573179e-03  1.8547376479740917e-03  1.8547376476549862e-03  1.8547376473913406e-03  1.8547376471757305e-03  1.8547376470019767e-03  1.8547376468654631e-03  1.8547376467641255e-03  1.8547376466999535e-03  3.8341172250350745e-03  3.8341172334475679e-03  1.8547376483769456e-03  1.8547376494416571e-03  1.8547376515963170e-03  1.8547376556555771e-03  1.8547376631649077e-03  1.8547376769413922e-03  1.8547377019966357e-03  1.8547377470519337e-03  1.8547378269341947e-03  1.8547379662176816e-03  1.8547382045242997e-03  1.8547386038598843e-03  1.8547392581020124e-03  1.8547403038230432e-03  1.8547419289124366e-03  1.8547443689662837e-03  1.8547478860764654e-03  1.8547530411611871e-03  1.8547612940657764e-03  2.8022997319034006e-03  7.0823935776963883e-03  4.8700521198150459e-01  4.8702825885954054e-01  4.8639382778684809e-01  4.8206345241785081e-01  4.8206345241512477e-01  4.9586081073116584e-01  5.0252699221415975e-01  5.2197713615100361e-01  3.8571241264879451e-03  1.8635253323627103e-03  1.8684076763824994e-03  1.8730188918684642e-03  1.8767772459070426e-03  1.8796462037357063e-03  1.8817703754386544e-03  1.8833239037709150e-03  1.8844765303491352e-03  1.8853857532704025e-03  1.8861889833468922e-03  1.8869964742862250e-03  1.8878877956942934e-03  1.8889118503834729e-03  1.8900891922595101e-03  1.8914154431765881e-03  1.8928650506733196e-03  1.8943952872194113e-03  1.8959512342174561e-03  1.8974730090131199e-03  1.8989055655247087e-03  1.9002076734312453e-03  1.9013491919702599e-03  1.9022751653956014e-03  1.9028080853863256e-03  1.9024826731422998e-03  1.9004364168184072e-03  1.8958036701866604e-03  1.8885883941026070e-03  1.8799619783492869e-03  1.8716970550875971e-03  1.8651583337807264e-03  1.8606885298194219e-03  1.8579439751232559e-03  1.8563873787448906e-03  1.8555561655015560e-03  1.8551323524946327e-03  1.8549238136647021e-03  1.8548239716719794e-03  1.8547771638492173e-03  1.8547555683118939e-03  1.8547457246222776e-03  1.8547412775130757e-03  1.8547392809471128e-03  1.8547383879645237e-03  1.8547379890248613e-03  1.8547378103731041e-03  1.8547377297281318e-03  1.8547376926740210e-03  1.8547376750536494e-03  1.8547376661566847e-03  1.8547376612355251e-03  1.8547376581828918e-03  1.8547376560595244e-03  1.8547376544423796e-03  1.8547376531362911e-03  1.8547376520466972e-03  1.8547376511235569e-03  1.8547376503367965e-03  1.8547376496656403e-03  1.8547376490940385e-03  1.8547376486087036e-03  1.8547376481982626e-03  1.8547376478528477e-03  1.8547376475638285e-03  1.8547376473237805e-03  1.8547376471266563e-03  1.8547376469683599e-03  1.8547376468480618e-03  1.8547376467699366e-03  3.8341172305778690e-03  3.8341172411329506e-03  1.8547376494220369e-03  1.8547376511661444e-03  1.8547376547994156e-03  1.8547376618482589e-03  1.8547376752489572e-03  1.8547377004504754e-03  1.8547377473279122e-03  1.8547378333827157e-03  1.8547379888994057e-03  1.8547382649279701e-03  1.8547387451127123e-03  1.8547395624094179e-03  1.8547409213904693e-03  1.8547431248716120e-03  1.8547465928021242e-03  1.8547517862308536e-03  1.8547586164387130e-03  1.8547658714408079e-03  2.8022953493933890e-03  7.0822506165597113e-03  4.8570047