<?xml version="1.0"?>
<VTKFile type="UnstructuredGrid"  version="0.1"  >
<UnstructuredGrid>
<Piece  NumberOfPoints="5151" NumberOfCells="10000">
<Points>
<DataArray  type="Float64"  NumberOfComponents="3"  format="ascii">0 0 0  0.02 0 0  0.04 0 0  0.06 0 0  0.08 0 0  0.1 0 0  0.12 0 0  0.14 0 0  0.16 0 0  0.18 0 0  0.2 0 0  0.22 0 0  0.24 0 0  0.26 0 0  0.28 0 0  0.3 0 0  0.32 0 0  0.34 0 0  0.36 0 0  0.38 0 0  0.4 0 0  0.42 0 0  0.44 0 0  0.46 0 0  0.48 0 0  0.5 0 0  0.52 0 0  0.54 0 0  0.5600000000000001 0 0  0.58 0 0  0.6 0 0  0.62 0 0  0.64 0 0  0.66 0 0  0.68 0 0  0.7 0 0  0.72 0 0  0.74 0 0  0.76 0 0  0.78 0 0  0.8 0 0  0.82 0 0  0.84 0 0  0.86 0 0  0.88 0 0  0.9 0 0  0.92 0 0  0.9399999999999999 0 0  0.96 0 0  0.98 0 0  1 0 0  1.02 0 0  1.04 0 0  1.06 0 0  1.08 0 0  1.1 0 0  1.12 0 0  1.14 0 0  1.16 0 0  1.18 0 0  1.2 0 0  1.22 0 0  1.24 0 0  1.26 0 0  1.28 0 0  1.3 0 0  1.32 0 0  1.34 0 0  1.36 0 0  1.38 0 0  1.4 0 0  1.42 0 0  1.44 0 0  1.46 0 0  1.48 0 0  1.5 0 0  1.52 0 0  1.54 0 0  1.56 0 0  1.58 0 0  1.6 0 0  1.62 0 0  1.64 0 0  1.66 0 0  1.68 0 0  1.7 0 0  1.72 0 0  1.74 0 0  1.76 0 0  1.78 0 0  1.8 0 0  1.82 0 0  1.84 0 0  1.86 0 0  1.88 0 0  1.9 0 0  1.92 0 0  1.94 0 0  1.96 0 0  1.98 0 0  2 0 0  0 0.02 0  0.02 0.02 0  0.04 0.02 0  0.06 0.02 0  0.08 0.02 0  0.1 0.02 0  0.12 0.02 0  0.14 0.02 0  0.16 0.02 0  0.18 0.02 0  0.2 0.02 0  0.22 0.02 0  0.24 0.02 0  0.26 0.02 0  0.28 0.02 0  0.3 0.02 0  0.32 0.02 0  0.34 0.02 0  0.36 0.02 0  0.38 0.02 0  0.4 0.02 0  0.42 0.02 0  0.44 0.02 0  0.46 0.02 0  0.48 0.02 0  0.5 0.02 0  0.52 0.02 0  0.54 0.02 0  0.5600000000000001 0.02 0  0.58 0.02 0  0.6 0.02 0  0.62 0.02 0  0.64 0.02 0  0.66 0.02 0  0.68 0.02 0  0.7 0.02 0  0.72 0.02 0  0.74 0.02 0  0.76 0.02 0  0.78 0.02 0  0.8 0.02 0  0.82 0.02 0  0.84 0.02 0  0.86 0.02 0  0.88 0.02 0  0.9 0.02 0  0.92 0.02 0  0.9399999999999999 0.02 0  0.96 0.02 0  0.98 0.02 0  1 0.02 0  1.02 0.02 0  1.04 0.02 0  1.06 0.02 0  1.08 0.02 0  1.1 0.02 0  1.12 0.02 0  1.14 0.02 0  1.16 0.02 0  1.18 0.02 0  1.2 0.02 0  1.22 0.02 0  1.24 0.02 0  1.26 0.02 0  1.28 0.02 0  1.3 0.02 0  1.32 0.02 0  1.34 0.02 0  1.36 0.02 0  1.38 0.02 0  1.4 0.02 0  1.42 0.02 0  1.44 0.02 0  1.46 0.02 0  1.48 0.02 0  1.5 0.02 0  1.52 0.02 0  1.54 0.02 0  1.56 0.02 0  1.58 0.02 0  1.6 0.02 0  1.62 0.02 0  1.64 0.02 0  1.66 0.02 0  1.68 0.02 0  1.7 0.02 0  1.72 0.02 0  1.74 0.02 0  1.76 0.02 0  1.78 0.02 0  1.8 0.02 0  1.82 0.02 0  1.84 0.02 0  1.86 0.02 0  1.88 0.02 0  1.9 0.02 0  1.92 0.02 0  1.94 0.02 0  1.96 0.02 0  1.98 0.02 0  2 0.02 0  0 0.04 0  0.02 0.04 0  0.04 0.04 0  0.06 0.04 0  0.08 0.04 0  0.1 0.04 0  0.12 0.04 0  0.14 0.04 0  0.16 0.04 0  0.18 0.04 0  0.2 0.04 0  0.22 0.04 0  0.24 0.04 0  0.26 0.04 0  0.28 0.04 0  0.3 0.04 0  0.32 0.04 0  0.34 0.04 0  0.36 0.04 0  0.38 0.04 0  0.4 0.04 0  0.42 0.04 0  0.44 0.04 0  0.46 0.04 0  0.48 0.04 0  0.5 0.04 0  0.52 0.04 0  0.54 0.04 0  0.5600000000000001 0.04 0  0.58 0.04 0  0.6 0.04 0  0.62 0.04 0  0.64 0.04 0  0.66 0.04 0  0.68 0.04 0  0.7 0.04 0  0.72 0.04 0  0.74 0.04 0  0.76 0.04 0  0.78 0.04 0  0.8 0.04 0  0.82 0.04 0  0.84 0.04 0  0.86 0.04 0  0.88 0.04 0  0.9 0.04 0  0.92 0.04 0  0.9399999999999999 0.04 0  0.96 0.04 0  0.98 0.04 0  1 0.04 0  1.02 0.04 0  1.04 0.04 0  1.06 0.04 0  1.08 0.04 0  1.1 0.04 0  1.12 0.04 0  1.14 0.04 0  1.16 0.04 0  1.18 0.04 0  1.2 0.04 0  1.22 0.04 0  1.24 0.04 0  1.26 0.04 0  1.28 0.04 0  1.3 0.04 0  1.32 0.04 0  1.34 0.04 0  1.36 0.04 0  1.38 0.04 0  1.4 0.04 0  1.42 0.04 0  1.44 0.04 0  1.46 0.04 0  1.48 0.04 0  1.5 0.04 0  1.52 0.04 0  1.54 0.04 0  1.56 0.04 0  1.58 0.04 0  1.6 0.04 0  1.62 0.04 0  1.64 0.04 0  1.66 0.04 0  1.68 0.04 0  1.7 0.04 0  1.72 0.04 0  1.74 0.04 0  1.76 0.04 0  1.78 0.04 0  1.8 0.04 0  1.82 0.04 0  1.84 0.04 0  1.86 0.04 0  1.88 0.04 0  1.9 0.04 0  1.92 0.04 0  1.94 0.04 0  1.96 0.04 0  1.98 0.04 0  2 0.04 0  0 0.06 0  0.02 0.06 0  0.04 0.06 0  0.06 0.06 0  0.08 0.06 0  0.1 0.06 0  0.12 0.06 0  0.14 0.06 0  0.16 0.06 0  0.18 0.06 0  0.2 0.06 0  0.22 0.06 0  0.24 0.06 0  0.26 0.06 0  0.28 0.06 0  0.3 0.06 0  0.32 0.06 0  0.34 0.06 0  0.36 0.06 0  0.38 0.06 0  0.4 0.06 0  0.42 0.06 0  0.44 0.06 0  0.46 0.06 0  0.48 0.06 0  0.5 0.06 0  0.52 0.06 0  0.54 0.06 0  0.5600000000000001 0.06 0  0.58 0.06 0  0.6 0.06 0  0.62 0.06 0  0.64 0.06 0  0.66 0.06 0  0.68 0.06 0  0.7 0.06 0  0.72 0.06 0  0.74 0.06 0  0.76 0.06 0  0.78 0.06 0  0.8 0.06 0  0.82 0.06 0  0.84 0.06 0  0.86 0.06 0  0.88 0.06 0  0.9 0.06 0  0.92 0.06 0  0.9399999999999999 0.06 0  0.96 0.06 0  0.98 0.06 0  1 0.06 0  1.02 0.06 0  1.04 0.06 0  1.06 0.06 0  1.08 0.06 0  1.1 0.06 0  1.12 0.06 0  1.14 0.06 0  1.16 0.06 0  1.18 0.06 0  1.2 0.06 0  1.22 0.06 0  1.24 0.06 0  1.26 0.06 0  1.28 0.06 0  1.3 0.06 0  1.32 0.06 0  1.34 0.06 0  1.36 0.06 0  1.38 0.06 0  1.4 0.06 0  1.42 0.06 0  1.44 0.06 0  1.46 0.06 0  1.48 0.06 0  1.5 0.06 0  1.52 0.06 0  1.54 0.06 0  1.56 0.06 0  1.58 0.06 0  1.6 0.06 0  1.62 0.06 0  1.64 0.06 0  1.66 0.06 0  1.68 0.06 0  1.7 0.06 0  1.72 0.06 0  1.74 0.06 0  1.76 0.06 0  1.78 0.06 0  1.8 0.06 0  1.82 0.06 0  1.84 0.06 0  1.86 0.06 0  1.88 0.06 0  1.9 0.06 0  1.92 0.06 0  1.94 0.06 0  1.96 0.06 0  1.98 0.06 0  2 0.06 0  0 0.08 0  0.02 0.08 0  0.04 0.08 0  0.06 0.08 0  0.08 0.08 0  0.1 0.08 0  0.12 0.08 0  0.14 0.08 0  0.16 0.08 0  0.18 0.08 0  0.2 0.08 0  0.22 0.08 0  0.24 0.08 0  0.26 0.08 0  0.28 0.08 0  0.3 0.08 0  0.32 0.08 0  0.34 0.08 0  0.36 0.08 0  0.38 0.08 0  0.4 0.08 0  0.42 0.08 0  0.44 0.08 0  0.46 0.08 0  0.48 0.08 0  0.5 0.08 0  0.52 0.08 0  0.54 0.08 0  0.5600000000000001 0.08 0  0.58 0.08 0  0.6 0.08 0  0.62 0.08 0  0.64 0.08 0  0.66 0.08 0  0.68 0.08 0  0.7 0.08 0  0.72 0.08 0  0.74 0.08 0  0.76 0.08 0  0.78 0.08 0  0.8 0.08 0  0.82 0.08 0  0.84 0.08 0  0.86 0.08 0  0.88 0.08 0  0.9 0.08 0  0.92 0.08 0  0.9399999999999999 0.08 0  0.96 0.08 0  0.98 0.08 0  1 0.08 0  1.02 0.08 0  1.04 0.08 0  1.06 0.08 0  1.08 0.08 0  1.1 0.08 0  1.12 0.08 0  1.14 0.08 0  1.16 0.08 0  1.18 0.08 0  1.2 0.08 0  1.22 0.08 0  1.24 0.08 0  1.26 0.08 0  1.28 0.08 0  1.3 0.08 0  1.32 0.08 0  1.34 0.08 0  1.36 0.08 0  1.38 0.08 0  1.4 0.08 0  1.42 0.08 0  1.44 0.08 0  1.46 0.08 0  1.48 0.08 0  1.5 0.08 0  1.52 0.08 0  1.54 0.08 0  1.56 0.08 0  1.58 0.08 0  1.6 0.08 0  1.62 0.08 0  1.64 0.08 0  1.66 0.08 0  1.68 0.08 0  1.7 0.08 0  1.72 0.08 0  1.74 0.08 0  1.76 0.08 0  1.78 0.08 0  1.8 0.08 0  1.82 0.08 0  1.84 0.08 0  1.86 0.08 0  1.88 0.08 0  1.9 0.08 0  1.92 0.08 0  1.94 0.08 0  1.96 0.08 0  1.98 0.08 0  2 0.08 0  0 0.1 0  0.02 0.1 0  0.04 0.1 0  0.06 0.1 0  0.08 0.1 0  0.1 0.1 0  0.12 0.1 0  0.14 0.1 0  0.16 0.1 0  0.18 0.1 0  0.2 0.1 0  0.22 0.1 0  0.24 0.1 0  0.26 0.1 0  0.28 0.1 0  0.3 0.1 0  0.32 0.1 0  0.34 0.1 0  0.36 0.1 0  0.38 0.1 0  0.4 0.1 0  0.42 0.1 0  0.44 0.1 0  0.46 0.1 0  0.48 0.1 0  0.5 0.1 0  0.52 0.1 0  0.54 0.1 0  0.5600000000000001 0.1 0  0.58 0.1 0  0.6 0.1 0  0.62 0.1 0  0.64 0.1 0  0.66 0.1 0  0.68 0.1 0  0.7 0.1 0  0.72 0.1 0  0.74 0.1 0  0.76 0.1 0  0.78 0.1 0  0.8 0.1 0  0.82 0.1 0  0.84 0.1 0  0.86 0.1 0  0.88 0.1 0  0.9 0.1 0  0.92 0.1 0  0.9399999999999999 0.1 0  0.96 0.1 0  0.98 0.1 0  1 0.1 0  1.02 0.1 0  1.04 0.1 0  1.06 0.1 0  1.08 0.1 0  1.1 0.1 0  1.12 0.1 0  1.14 0.1 0  1.16 0.1 0  1.18 0.1 0  1.2 0.1 0  1.22 0.1 0  1.24 0.1 0  1.26 0.1 0  1.28 0.1 0  1.3 0.1 0  1.32 0.1 0  1.34 0.1 0  1.36 0.1 0  1.38 0.1 0  1.4 0.1 0  1.42 0.1 0  1.44 0.1 0  1.46 0.1 0  1.48 0.1 0  1.5 0.1 0  1.52 0.1 0  1.54 0.1 0  1.56 0.1 0  1.58 0.1 0  1.6 0.1 0  1.62 0.1 0  1.64 0.1 0  1.66 0.1 0  1.68 0.1 0  1.7 0.1 0  1.72 0.1 0  1.74 0.1 0  1.76 0.1 0  1.78 0.1 0  1.8 0.1 0  1.82 0.1 0  1.84 0.1 0  1.86 0.1 0  1.88 0.1 0  1.9 0.1 0  1.92 0.1 0  1.94 0.1 0  1.96 0.1 0  1.98 0.1 0  2 0.1 0  0 0.12 0  0.02 0.12 0  0.04 0.12 0  0.06 0.12 0  0.08 0.12 0  0.1 0.12 0  0.12 0.12 0  0.14 0.12 0  0.16 0.12 0  0.18 0.12 0  0.2 0.12 0  0.22 0.12 0  0.24 0.12 0  0.26 0.12 0  0.28 0.12 0  0.3 0.12 0  0.32 0.12 0  0.34 0.12 0  0.36 0.12 0  0.38 0.12 0  0.4 0.12 0  0.42 0.12 0  0.44 0.12 0  0.46 0.12 0  0.48 0.12 0  0.5 0.12 0  0.52 0.12 0  0.54 0.12 0  0.5600000000000001 0.12 0  0.58 0.12 0  0.6 0.12 0  0.62 0.12 0  0.64 0.12 0  0.66 0.12 0  0.68 0.12 0  0.7 0.12 0  0.72 0.12 0  0.74 0.12 0  0.76 0.12 0  0.78 0.12 0  0.8 0.12 0  0.82 0.12 0  0.84 0.12 0  0.86 0.12 0  0.88 0.12 0  0.9 0.12 0  0.92 0.12 0  0.9399999999999999 0.12 0  0.96 0.12 0  0.98 0.12 0  1 0.12 0  1.02 0.12 0  1.04 0.12 0  1.06 0.12 0  1.08 0.12 0  1.1 0.12 0  1.12 0.12 0  1.14 0.12 0  1.16 0.12 0  1.18 0.12 0  1.2 0.12 0  1.22 0.12 0  1.24 0.12 0  1.26 0.12 0  1.28 0.12 0  1.3 0.12 0  1.32 0.12 0  1.34 0.12 0  1.36 0.12 0  1.38 0.12 0  1.4 0.12 0  1.42 0.12 0  1.44 0.12 0  1.46 0.12 0  1.48 0.12 0  1.5 0.12 0  1.52 0.12 0  1.54 0.12 0  1.56 0.12 0  1.58 0.12 0  1.6 0.12 0  1.62 0.12 0  1.64 0.12 0  1.66 0.12 0  1.68 0.12 0  1.7 0.12 0  1.72 0.12 0  1.74 0.12 0  1.76 0.12 0  1.78 0.12 0  1.8 0.12 0  1.82 0.12 0  1.84 0.12 0  1.86 0.12 0  1.88 0.12 0  1.9 0.12 0  1.92 0.12 0  1.94 0.12 0  1.96 0.12 0  1.98 0.12 0  2 0.12 0  0 0.14 0  0.02 0.14 0  0.04 0.14 0  0.06 0.14 0  0.08 0.14 0  0.1 0.14 0  0.12 0.14 0  0.14 0.14 0  0.16 0.14 0  0.18 0.14 0  0.2 0.14 0  0.22 0.14 0  0.24 0.14 0  0.26 0.14 0  0.28 0.14 0  0.3 0.14 0  0.32 0.14 0  0.34 0.14 0  0.36 0.14 0  0.38 0.14 0  0.4 0.14 0  0.42 0.14 0  0.44 0.14 0  0.46 0.14 0  0.48 0.14 0  0.5 0.14 0  0.52 0.14 0  0.54 0.14 0  0.5600000000000001 0.14 0  0.58 0.14 0  0.6 0.14 0  0.62 0.14 0  0.64 0.14 0  0.66 0.14 0  0.68 0.14 0  0.7 0.14 0  0.72 0.14 0  0.74 0.14 0  0.76 0.14 0  0.78 0.14 0  0.8 0.14 0  0.82 0.14 0  0.84 0.14 0  0.86 0.14 0  0.88 0.14 0  0.9 0.14 0  0.92 0.14 0  0.9399999999999999 0.14 0  0.96 0.14 0  0.98 0.14 0  1 0.14 0  1.02 0.14 0  1.04 0.14 0  1.06 0.14 0  1.08 0.14 0  1.1 0.14 0  1.12 0.14 0  1.14 0.14 0  1.16 0.14 0  1.18 0.14 0  1.2 0.14 0  1.22 0.14 0  1.24 0.14 0  1.26 0.14 0  1.28 0.14 0  1.3 0.14 0  1.32 0.14 0  1.34 0.14 0  1.36 0.14 0  1.38 0.14 0  1.4 0.14 0  1.42 0.14 0  1.44 0.14 0  1.46 0.14 0  1.48 0.14 0  1
[...]
<PointData  Scalars="sols[i]"> 
<DataArray  type="Float64"  Name="sols[i]"  format="ascii">5.6949965799012882e-02  3.8885609482936248e-02  3.8885609483051933e-02  3.8885609483266179e-02  3.8885609483623448e-02  3.8885609484180010e-02  3.8885609484998224e-02  3.8885609486140310e-02  3.8885609487662703e-02  3.8885609489612449e-02  3.8885609492024617e-02  3.8885609494919794e-02  3.8885609498301950e-02  3.8885609502155617e-02  3.8885609506442348e-02  3.8885609511096542e-02  3.8885609516021720e-02  3.8885609521086849e-02  3.8885609526124569e-02  3.8885609530934756e-02  3.8885609535295663e-02  3.8885609538990631e-02  3.8885609541863680e-02  3.8885609543924636e-02  3.8885609545545922e-02  3.8885609547827556e-02  3.8885609553268093e-02  3.8885609566997097e-02  3.8885609599024956e-02  3.8885609668304698e-02  3.8885609809948485e-02  3.8885610087743001e-02  3.8885610615175606e-02  3.8885611589284740e-02  3.8885613342145270e-02  3.8885616413303029e-02  3.8885621640792109e-02  3.8885630256441303e-02  3.8885643954645395e-02  3.8885664895489114e-02  3.8885695635566521e-02  3.8885739094338338e-02  3.8885798829500065e-02  3.8885879812795343e-02  3.8885988916195338e-02  3.8886132721149338e-02  3.8886311540230568e-02  3.8886514191742862e-02  3.8886719638242681e-02  3.8886905852631812e-02  3.8887059936324998e-02  3.8887172226314284e-02  3.8887222235725771e-02  3.8887190844603022e-02  3.8887076309658986e-02  3.8886895788787637e-02  3.8886677828290653e-02  3.8886451007857231e-02  3.8886238578967447e-02  3.8886056444378411e-02  3.8885912113175387e-02  3.8885805505810972e-02  3.8885731483531291e-02  3.8885682770402767e-02  3.8885652158365216e-02  3.8885633667253373e-02  3.8885622870026018e-02  3.8885616746418029e-02  3.8885613359788969e-02  3.8885611527419775e-02  3.8885610554822168e-02  3.8885610047119608e-02  3.8885609785751292e-02  3.8885609652495053e-02  3.8885609584688050e-02  3.8885609549736327e-02  3.8885609531001349e-02  3.8885609520160090e-02  3.8885609513146721e-02  3.8885609508032146e-02  3.8885609503933716e-02  3.8885609500464477e-02  3.8885609497459638e-02  3.8885609494848296e-02  3.8885609492592767e-02  3.8885609490663851e-02  3.8885609489032670e-02  3.8885609487668893e-02  3.8885609486541586e-02  3.8885609485620698e-02  3.8885609484878195e-02  3.8885609484288694e-02  3.8885609483829617e-02  3.8885609483481146e-02  3.8885609483224462e-02  3.8885609483043163e-02  3.8885609482921503e-02  3.8885609482844544e-02  3.8885609482799510e-02  3.8885609482777375e-02  1.0675129259505634e-01  3.8885609482933764e-02  1.9899316192582117e-02  1.9899316192675310e-02  1.9899316192844192e-02  1.9899316193115097e-02  1.9899316193521945e-02  1.9899316194103261e-02  1.9899316194898462e-02  1.9899316195944209e-02  1.9899316197271585e-02  1.9899316198904039e-02  1.9899316200855503e-02  1.9899316203128587e-02  1.9899316205712711e-02  1.9899316208581735e-02  1.9899316211691300e-02  1.9899316214976381e-02  1.9899316218349332e-02  1.9899316221699034e-02  1.9899316224893545e-02  1.9899316227788004e-02  1.9899316230242166e-02  1.9899316232155580e-02  1.9899316233532909e-02  1.9899316234603455e-02  1.9899316236039671e-02  1.9899316239356264e-02  1.9899316247642136e-02  1.9899316266903611e-02  1.9899316308515904e-02  1.9899316393647216e-02  1.9899316561090181e-02  1.9899316880748908e-02  1.9899317476003715e-02  1.9899318558934259e-02  1.9899320481967957e-02  1.9899323806097293e-02  1.9899329376903890e-02  1.9899338384271104e-02  1.9899352366762477e-02  1.9899373133601395e-02  1.9899402667822450e-02  1.9899443272063944e-02  1.9899498321357387e-02  1.9899573205919133e-02  1.9899674071789712e-02  1.9899802506355854e-02  1.9899950314577055e-02  1.9900100634014511e-02  1.9900235937960517e-02  1.9900349090498599e-02  1.9900436984770658e-02  1.9900482004517172e-02  1.9900465527369550e-02  1.9900384544451231e-02  1.9900252252850633e-02  1.9900091492660903e-02  1.9899924190249781e-02  1.9899767843216589e-02  1.9899634484553425e-02  1.9899529684062691e-02  1.9899453097702930e-02  1.9899400549276705e-02  1.9899366385537944e-02  1.9899345166472175e-02  1.9899332486809775e-02  1.9899325153616410e-02  1.9899321028590551e-02  1.9899318762582129e-02  1.9899317543010383e-02  1.9899316898270208e-02  1.9899316562752269e-02  1.9899316390519384e-02  1.9899316303038067e-02  1.9899316258805564e-02  1.9899316236253524e-02  1.9899316224362314e-02  1.9899316217609479e-02  1.9899316213293907e-02  1.9899316210137359e-02  1.9899316207562700e-02  1.9899316205326745e-02  1.9899316203336490e-02  1.9899316201560779e-02  1.9899316199989369e-02  1.9899316198615118e-02  1.9899316197428470e-02  1.9899316196416404e-02  1.9899316195563403e-02  1.9899316194852777e-02  1.9899316194267925e-02  1.9899316193793103e-02  1.9899316193413862e-02  1.9899316193117182e-02  1.9899316192890881e-02  1.9899316192723816e-02  1.9899316192605650e-02  1.9899316192526224e-02  1.9899316192476438e-02  1.9899316192449348e-02  3.8885609482776536e-02  3.8885609483041088e-02  1.9899316192668930e-02  1.9899316192777260e-02  1.9899316192959739e-02  1.9899316193230335e-02  1.9899316193605833e-02  1.9899316194104684e-02  1.9899316194745942e-02  1.9899316195547641e-02  1.9899316196525019e-02  1.9899316197688810e-02  1.9899316199043515e-02  1.9899316200585819e-02  1.9899316202303247e-02  1.9899316204172728e-02  1.9899316206159316e-02  1.9899316208215799e-02  1.9899316210283149e-02  1.9899316212292798e-02  1.9899316214173055e-02  1.9899316215861544e-02  1.9899316217328704e-02  1.9899316218621822e-02  1.9899316219945777e-02  1.9899316221812971e-02  1.9899316225326470e-02  1.9899316232718994e-02  1.9899316248386791e-02  1.9899316280874713e-02  1.9899316346664472e-02  1.9899316477318196e-02  1.9899316732695165e-02  1.9899317224772502e-02  1.9899318159088960e-02  1.9899319903499014e-02  1.9899323094953038e-02  1.9899328790005395e-02  1.9899338645733657e-02  1.9899355075686173e-02  1.9899381264590708e-02  1.9899420903740285e-02  1.9899477703255640e-02  1.9899555421371375e-02  1.9899660102435202e-02  1.9899804422334223e-02  1.9900005990909582e-02  1.9900271057384244e-02  1.9900578131740343e-02  1.9900883249388809e-02  1.9901144842982749e-02  1.9901364582536649e-02  1.9901557584662877e-02  1.9901668354970169e-02  1.9901636790297925e-02  1.9901456473636277e-02  1.9901164342259088e-02  1.9900819470311228e-02  1.9900469734638351e-02  1.9900150672087911e-02  1.9899886287513553e-02  1.9899685719589541e-02  1.9899544854124811e-02  1.9899452147677126e-02  1.9899394335727908e-02  1.9899359847098171e-02  1.9899340007806743e-02  1.9899328931726155e-02  1.9899322898436309e-02  1.9899319678078377e-02  1.9899317987774983e-02  1.9899317112810341e-02  1.9899316665050487e-02  1.9899316437993104e-02  1.9899316323581009e-02  1.9899316266040024e-02  1.9899316236918461e-02  1.9899316221859403e-02  1.9899316213699156e-02  1.9899316208909175e-02  1.9899316205779054e-02  1.9899316203495943e-02  1.9899316201682317e-02  1.9899316200165870e-02  1.9899316198867950e-02  1.9899316197750247e-02  1.9899316196790071e-02  1.9899316195970455e-02  1.9899316195276275e-02  1.9899316194693144e-02  1.9899316194207404e-02  1.9899316193806350e-02  1.9899316193478404e-02  1.9899316193213216e-02  1.9899316193001743e-02  1.9899316192835734e-02  1.9899316192708141e-02  1.9899316192613033e-02  1.9899316192544897e-02  1.9899316192498982e-02  1.9899316192471758e-02  3.8885609482794785e-02  3.8885609483234919e-02  1.9899316192821648e-02  1.9899316192942447e-02  1.9899316193134987e-02  1.9899316193403689e-02  1.9899316193752004e-02  1.9899316194181983e-02  1.9899316194695527e-02  1.9899316195294680e-02  1.9899316195980940e-02  1.9899316196754235e-02  1.9899316197611417e-02  1.9899316198545066e-02  1.9899316199542726e-02  1.9899316200586371e-02  1.9899316201652528e-02  1.9899316202713686e-02  1.9899316203741208e-02  1.9899316204710693e-02  1.9899316205612239e-02  1.9899316206468322e-02  1.9899316207365299e-02  1.9899316208511399e-02  1.9899316210344738e-02  1.9899316213740498e-02  1.9899316220418052e-02  1.9899316233750512e-02  1.9899316260384908e-02  1.9899316313481973e-02  1.9899316419147765e-02  1.9899316629043842e-02  1.9899317044668768e-02  1.9899317863001295e-02  1.9899319459616899e-02  1.9899322533754780e-02  1.9899328347089764e-02  1.9899339084332751e-02  1.9899358326538458e-02  1.9899391518578571e-02  1.9899446098805125e-02  1.9899530726149074e-02  1.9899653287578447e-02  1.9899819432512005e-02  1.9900038560761037e-02  1.9900341829782398e-02  1.9900783175095787e-02  1.9901381769687414e-02  1.9902064135109004e-02  1.9902704687038607e-02  1.9903205184568690e-02  1.9903641991365458e-02  1.9904157487501257e-02  1.9904539529523337e-02  1.9904532413390033e-02  1.9904111947599862e-02  1.9903402671482266e-02  1.9902584941464040e-02  1.9901772794535554e-02  1.9901045947752046e-02  1.9900460056180371e-02  1.9900031383913361e-02  1.9899742481828339e-02  1.9899560369875377e-02  1.9899451561675333e-02  1.9899389271260642e-02  1.9899354807234142e-02  1.9899336251457431e-02  1.9899326475676687e-02  1.9899321413650840e-02  1.9899318827783972e-02  1.9899317520484558e-02  1.9899316864504531e-02  1.9899316536825386e-02  1.9899316373282478e-02  1.9899316291300824e-02  1.9899316249683236e-02  1.9899316228013813e-02  1.9899316216234159e-02  1.9899316209414514e-02  1.9899316205148045e-02  1.9899316202259692e-02  1.9899316200170457e-02  1.9899316198586661e-02  1.9899316197350921e-02  1.9899316196371364e-02  1.9899316195588213e-02  1.9899316194959164e-02  1.9899316194452416e-02  1.9899316194043289e-02  1.9899316193712355e-02  1.9899316193444261e-02  1.9899316193226831e-02  1.9899316193050385e-02  1.9899316192907364e-02  1.9899316192791630e-02  1.9899316192698763e-02  1.9899316192625995e-02  1.9899316192571355e-02  1.9899316192533413e-02  1.9899316192510390e-02  3.8885609482830361e-02  3.8885609483547391e-02  1.9899316193057043e-02  1.9899316193174997e-02  1.9899316193364189e-02  1.9899316193622736e-02  1.9899316193944513e-02  1.9899316194320078e-02  1.9899316194739471e-02  1.9899316195193726e-02  1.9899316195675035e-02  1.9899316196176207e-02  1.9899316196689561e-02  1.9899316197206137e-02  1.9899316197715511e-02  1.9899316198206091e-02  1.9899316198666403e-02  1.9899316199088118e-02  1.9899316199471065e-02  1.9899316199831395e-02  1.9899316200215851e-02  1.9899316200725652e-02  1.9899316201558607e-02  1.9899316203087609e-02  1.9899316206011514e-02  1.9899316211655506e-02  1.9899316222583771e-02  1.9899316243862229e-02  1.9899316285672073e-02  1.9899316368706177e-02  1.9899316535227432e-02  1.9899316871467829e-02  1.9899317552279354e-02  1.9899318928309841e-02  1.9899321691649298e-02  1.9899327179432949e-02  1.9899337903314808e-02  1.9899358408184013e-02  1.9899396511424736e-02  1.9899464730084502e-02  1.9899581065920779e-02  1.9899767199185996e-02  1.9900041484046390e-02  1.9900408670297846e-02  1.9900871314813742e-02  1.9901496898127206e-02  1.9902439801952772e-02  1.9903722146766886e-02  1.9905016732538527e-02  2.9524590283522764e-02  3.8913388731140204e-02  3.8915673058520575e-02  3.8920834208115970e-02  2.9533845040984181e-02  1.9910899434708109e-02  1.9910187222888065e-02  1.9908519557649620e-02  1.9906574586999896e-02  1.9904659637088540e-02  1.9902968763261579e-02  1.9901645713077010e-02  1.9900716709113923e-02  1.9900118635505958e-02  1.9899758626924696e-02  1.9899552826618185e-02  1.9899439767741375e-02  1.9899379539093313e-02  1.9899348210120037e-02  1.9899332211583416e-02  1.9899324156256844e-02  1.9899320142824396e-02  1.9899318157801840e-02  1.9899317180087125e-02  1.9899316698724304e-02  1.9899316460618877e-02  1.9899316341370616e-02  1.9899316280200315e-02  1.9899316247554959e-02  1.9899316229118599e-02  1.9899316217968543e-02  1.9899316210745938e-02  1.9899316205796189e-02  1.9899316202273410e-02  1.9899316199714252e-02  1.9899316197839904e-02  1.9899316196465483e-02  1.9899316195458736e-02  1.9899316194721729e-02  1.9899316194181182e-02  1.9899316193782636e-02  1.9899316193486130e-02  1.9899316193262719e-02  1.9899316193091671e-02  1.9899316192958264e-02  1.9899316192852311e-02  1.9899316192766674e-02  1.9899316192697220e-02  1.9899316192642416e-02  1.9899316192602330e-02  1.9899316192577690e-02  1.9899316192566224e-02  3.8885609482886864e-02  3.8885609484013144e-02  1.9899316193393177e-02  1.9899316193477196e-02  1.9899316193637360e-02  1.9899316193868529e-02  1.9899316194156070e-02  1.9899316194481459e-02  1.9899316194826475e-02  1.9899316195175112e-02  1.9899316195513963e-02  1.9899316195831955e-02  1.9899316196119569e-02  1.9899316196368456e-02  1.9899316196571756e-02  1.9899316196725195e-02  1.9899316196829372e-02  1.9899316196894168e-02  1.9899316196945648e-02  1.9899316197036936e-02  1.9899316197266651e-02  1.9899316197810008e-02  1.9899316198974767e-02  1.9899316201308540e-02  1.9899316205812367e-02  1.9899316214380632e-02  1.9899316230726046e-02  1.9899316262341059e-02  1.9899316324666499e-02  1.9899316449925840e-02  1.9899316705719997e-02  1.9899317233784061e-02  1.9899318329717412e-02  1.9899320604270108e-02  1.9899325302585487e-02  1.9899334918126389e-02  1.9899354327397305e-02  1.9899392769902845e-02  1.9899467002450457e-02  1.9899605551085123e-02  1.9899852416062895e-02  1.9900264590662062e-02  1.9900890982272185e-02  1.9901720816778996e-02  1.9902677055705580e-02  1.9903830091745497e-02  1.9905539554814368e-02  2.9528525332015509e-02  3.8924634945099956e-02  5.7037271567638548e-02  5.0337284848621344e-01  5.0334206522758007e-01  5.0398696252491770e-01  5.0541493126806114e-01  5.7128842596421828e-02  2.9560435583542221e-02  1.9919641859481578e-02  1.9915387966159954e-02  1.9910925472666922e-02  1.9906978259848735e-02  1.9903996876738411e-02  1.9902006722171448e-02  1.9900792458659715e-02  1.9900098161113589e-02  1.9899719520918714e-02  1.9899520107169093e-02  1.9899417774301407e-02  1.9899366267403112e-02  1.9899340713078185e-02  1.9899328167256126e-02  1.9899322052666840e-02  1.9899319085353369e-02  1.9899317646790843e-02  1.9899316946880071e-02  1.9899316602669942e-02  1.9899316429576552e-02  1.9899316339054597e-02  1.9899316288824916e-02  1.9899316258784893e-02  1.9899316239388815e-02  1.9899316226064483e-02  1.9899316216550011e-02  1.9899316209642165e-02  1.9899316204622715e-02  1.9899316201006264e-02  1.9899316198433936e-02  1.9899316196629064e-02  1.9899316195378158e-02  1.9899316194519269e-02  1.9899316193932627e-02  1.9899316193531975e-02  1.9899316193256692e-02  1.9899316193065019e-02  1.9899316192928736e-02  1.9899316192829274e-02  1.9899316192754594e-02  1.9899316192698059e-02  1.9899316192657467e-02  1.9899316192633725e-02  1.9899316192629083e-02  1.9899316192638898e-02  3.8885609482967348e-02  3.8885609484660320e-02  1.9899316193844715e-02  1.9899316193848271e-02  1.9899316193941134e-02  1.9899316194118707e-02  1.9899316194356562e-02  1.9899316194627051e-02  1.9899316194905318e-02  1.9899316195170789e-02  1.9899316195407149e-02  1.9899316195601941e-02  1.9899316195745927e-02  1.9899316195833031e-02  1.9899316195861161e-02  1.9899316195833964e-02  1.9899316195763996e-02  1.9899316195678411e-02  1.9899316195627632e-02  1.9899316195698902e-02  1.9899316196039352e-02  1.9899316196895844e-02  1.9899316198688708e-02  1.9899316202157877e-02  1.9899316208663097e-02  1.9899316220819911e-02  1.9899316243870251e-02  1.9899316288655204e-02  1.9899316378072129e-02  1.9899316561064181e-02  1.9899316942766164e-02  1.9899317748977102e-02  1.9899319462695086e-02  1.9899323109658001e-02  1.9899330845952225e-02  1.9899347141783697e-02  1.9899381097841760e-02  1.9899450791898012e-02  1.9899590922211920e-02  1.9899864806476569e-02  1.9900379032573821e-02  1.9901288284996349e-02  1.9902745896617606e-02  1.9904684325955900e-02  1.9906608482490235e-02  1.9908116677463613e-02  2.9533505458866880e-02  5.7061110552709259e-02  5.0429467729795496e-01  5.0343316854374554e-01  5.0299311161797966e-01  5.0251782230304320e-01  5.0306258196490294e-01  5.0418006383750069e-01  5.0791478332251183e-01  5.1186341624442677e-01  3.9039532740943281e-02  1.9934102626632977e-02  1.9924334702761066e-02  1.9915130170375189e-02  1.9908476660138792e-02  1.9904313715278947e-02  1.9901930886855906e-02  1.9900644398245317e-02  1.9899976921599741e-02  1.9899640075216062e-02  1.9899473370124630e-02  1.9899391997035550e-02  1.9899352656997896e-02  1.9899333760572006e-02  1.9899324718845316e-02  1.9899320397767411e-02  1.9899318327994166e-02  1.9899317328518178e-02  1.9899316836893999e-02  1.9899316586308027e-02  1.9899316450790329e-02  1.9899316371251391e-02  1.9899316320179768e-02  1.9899316284807643e-02  1.9899316259117006e-02  1.9899316240093171e-02  1.9899316226019436e-02  1.9899316215740523e-02  1.9899316208371626e-02  1.9899316203196342e-02  1.9899316199633955e-02  1.9899316197226263e-02  1.9899316195624184e-02  1.9899316194571179e-02  1.9899316193884919e-02  1.9899316193439508e-02  1.9899316193150184e-02  1.9899316192961050e-02  1.9899316192836185e-02  1.9899316192752939e-02  1.9899316192698586e-02  1.9899316192668055e-02  1.9899316192661956e-02  1.9899316192683678e-02  1.9899316192724843e-02  3.8885609483071133e-02  3.8885609485501994e-02  1.9899316194417916e-02  1.9899316194283652e-02  1.9899316194261600e-02  1.9899316194352819e-02  1.9899316194520528e-02  1.9899316194726298e-02  1.9899316194938732e-02  1.9899316195133916e-02  1.9899316195294354e-02  1.9899316195407971e-02  1.9899316195467413e-02  1.9899316195470182e-02  1.9899316195419833e-02  1.9899316195328323e-02  1.9899316195220021e-02  1.9899316195138506e-02  1.9899316195156957e-02  1.9899316195394610e-02  1.9899316196044986e-02  1.9899316197426211e-02  1.9899316200077219e-02  1.9899316204953749e-02  1.9899316213842153e-02  1.9899316230256099e-02  1.9899316261407216e-02  1.9899316322559167e-02  1.9899316446659179e-02  1.9899316705605612e-02  1.9899317257033138e-02  1.9899318446698344e-02  1.9899321031047364e-02  1.9899326656987539e-02  1.9899338885100447e-02  1.9899365341670271e-02  1.9899422160516565e-02  1.9899542910166209e-02  1.9899795828634270e-02  1.9900314948222867e-02  1.9901349437099772e-02  1.9903317566185096e-02  1.9906750131374360e-02  1.9911473266344345e-02  1.9915240573612145e-02  2.9546832112039033e-02  5.7061451516350947e-02  5.0421162483580484e-01  5.0420350264649760e-01  4.9999998428290698e-01  4.9999998428494746e-01  4.9999998429340792e-01  4.9999998429338027e-01  4.9999998428160203e-01  4.9999998426934006e-01  5.0818819578875973e-01  5.1605238094139150e-01  3.9149416904927993e-02  1.9952052919107236e-02  1.9931065970825987e-02  1.9916536855964364e-02  1.9908164918601073e-02  1.9903717347899908e-02  1.9901460421409136e-02  1.9900347126946709e-02  1.9899807812830725e-02  1.9899549573965135e-02  1.9899426827784918e-02  1.9899368741494800e-02  1.9899341316732513e-02  1.9899328374394568e-02  1.9899322255519308e-02  1.9899319345659250e-02  1.9899317942378925e-02  1.9899317245364298e-02  1.9899316879683458e-02  1.9899316670888192e-02  1.9899316538754718e-02  1.9899316446937657e-02  1.9899316379095606e-02  1.9899316327656198e-02  1.9899316288666299e-02  1.9899316259567045e-02  1.9899316238337399e-02  1.9899316223234979e-02  1.9899316212757718e-02  1.9899316205657849e-02  1.9899316200946964e-02  1.9899316197877506e-02  1.9899316195907353e-02  1.9899316194657565e-02  1.9899316193871506e-02  1.9899316193379930e-02  1.9899316193073707e-02  1.9899316192884021e-02  1.9899316192768399e-02  1.9899316192702542e-02  1.9899316192675376e-02  1.9899316192685607e-02  1.9899316192737184e-02  1.9899316192817075e-02  3.8885609483192043e-02  3.8885609486529971e-02  1.9899316195106723e-02  1.9899316194773968e-02  1.9899316194586021e-02  1.9899316194555833e-02  1.9899316194631436e-02  1.9899316194761259e-02  1.9899316194906584e-02  1.9899316195040501e-02  1.9899316195145237e-02  1.9899316195210272e-02  1.9899316195231245e-02  1.9899316195210161e-02  1.9899316195156884e-02  1.9899316195091967e-02  1.9899316195051423e-02  1.9899316195094593e-02  1.9899316195316340e-02  1.9899316195866545e-02  1.9899316196984370e-02  1.9899316199060914e-02  1.98993162027