<?xml version="1.0"?>
<VTKFile type="UnstructuredGrid"  version="0.1"  >
<UnstructuredGrid>
<Piece  NumberOfPoints="5151" NumberOfCells="10000">
<Points>
<DataArray  type="Float64"  NumberOfComponents="3"  format="ascii">0 0 0  0.02 0 0  0.04 0 0  0.06 0 0  0.08 0 0  0.1 0 0  0.12 0 0  0.14 0 0  0.16 0 0  0.18 0 0  0.2 0 0  0.22 0 0  0.24 0 0  0.26 0 0  0.28 0 0  0.3 0 0  0.32 0 0  0.34 0 0  0.36 0 0  0.38 0 0  0.4 0 0  0.42 0 0  0.44 0 0  0.46 0 0  0.48 0 0  0.5 0 0  0.52 0 0  0.54 0 0  0.5600000000000001 0 0  0.58 0 0  0.6 0 0  0.62 0 0  0.64 0 0  0.66 0 0  0.68 0 0  0.7 0 0  0.72 0 0  0.74 0 0  0.76 0 0  0.78 0 0  0.8 0 0  0.82 0 0  0.84 0 0  0.86 0 0  0.88 0 0  0.9 0 0  0.92 0 0  0.9399999999999999 0 0  0.96 0 0  0.98 0 0  1 0 0  1.02 0 0  1.04 0 0  1.06 0 0  1.08 0 0  1.1 0 0  1.12 0 0  1.14 0 0  1.16 0 0  1.18 0 0  1.2 0 0  1.22 0 0  1.24 0 0  1.26 0 0  1.28 0 0  1.3 0 0  1.32 0 0  1.34 0 0  1.36 0 0  1.38 0 0  1.4 0 0  1.42 0 0  1.44 0 0  1.46 0 0  1.48 0 0  1.5 0 0  1.52 0 0  1.54 0 0  1.56 0 0  1.58 0 0  1.6 0 0  1.62 0 0  1.64 0 0  1.66 0 0  1.68 0 0  1.7 0 0  1.72 0 0  1.74 0 0  1.76 0 0  1.78 0 0  1.8 0 0  1.82 0 0  1.84 0 0  1.86 0 0  1.88 0 0  1.9 0 0  1.92 0 0  1.94 0 0  1.96 0 0  1.98 0 0  2 0 0  0 0.02 0  0.02 0.02 0  0.04 0.02 0  0.06 0.02 0  0.08 0.02 0  0.1 0.02 0  0.12 0.02 0  0.14 0.02 0  0.16 0.02 0  0.18 0.02 0  0.2 0.02 0  0.22 0.02 0  0.24 0.02 0  0.26 0.02 0  0.28 0.02 0  0.3 0.02 0  0.32 0.02 0  0.34 0.02 0  0.36 0.02 0  0.38 0.02 0  0.4 0.02 0  0.42 0.02 0  0.44 0.02 0  0.46 0.02 0  0.48 0.02 0  0.5 0.02 0  0.52 0.02 0  0.54 0.02 0  0.5600000000000001 0.02 0  0.58 0.02 0  0.6 0.02 0  0.62 0.02 0  0.64 0.02 0  0.66 0.02 0  0.68 0.02 0  0.7 0.02 0  0.72 0.02 0  0.74 0.02 0  0.76 0.02 0  0.78 0.02 0  0.8 0.02 0  0.82 0.02 0  0.84 0.02 0  0.86 0.02 0  0.88 0.02 0  0.9 0.02 0  0.92 0.02 0  0.9399999999999999 0.02 0  0.96 0.02 0  0.98 0.02 0  1 0.02 0  1.02 0.02 0  1.04 0.02 0  1.06 0.02 0  1.08 0.02 0  1.1 0.02 0  1.12 0.02 0  1.14 0.02 0  1.16 0.02 0  1.18 0.02 0  1.2 0.02 0  1.22 0.02 0  1.24 0.02 0  1.26 0.02 0  1.28 0.02 0  1.3 0.02 0  1.32 0.02 0  1.34 0.02 0  1.36 0.02 0  1.38 0.02 0  1.4 0.02 0  1.42 0.02 0  1.44 0.02 0  1.46 0.02 0  1.48 0.02 0  1.5 0.02 0  1.52 0.02 0  1.54 0.02 0  1.56 0.02 0  1.58 0.02 0  1.6 0.02 0  1.62 0.02 0  1.64 0.02 0  1.66 0.02 0  1.68 0.02 0  1.7 0.02 0  1.72 0.02 0  1.74 0.02 0  1.76 0.02 0  1.78 0.02 0  1.8 0.02 0  1.82 0.02 0  1.84 0.02 0  1.86 0.02 0  1.88 0.02 0  1.9 0.02 0  1.92 0.02 0  1.94 0.02 0  1.96 0.02 0  1.98 0.02 0  2 0.02 0  0 0.04 0  0.02 0.04 0  0.04 0.04 0  0.06 0.04 0  0.08 0.04 0  0.1 0.04 0  0.12 0.04 0  0.14 0.04 0  0.16 0.04 0  0.18 0.04 0  0.2 0.04 0  0.22 0.04 0  0.24 0.04 0  0.26 0.04 0  0.28 0.04 0  0.3 0.04 0  0.32 0.04 0  0.34 0.04 0  0.36 0.04 0  0.38 0.04 0  0.4 0.04 0  0.42 0.04 0  0.44 0.04 0  0.46 0.04 0  0.48 0.04 0  0.5 0.04 0  0.52 0.04 0  0.54 0.04 0  0.5600000000000001 0.04 0  0.58 0.04 0  0.6 0.04 0  0.62 0.04 0  0.64 0.04 0  0.66 0.04 0  0.68 0.04 0  0.7 0.04 0  0.72 0.04 0  0.74 0.04 0  0.76 0.04 0  0.78 0.04 0  0.8 0.04 0  0.82 0.04 0  0.84 0.04 0  0.86 0.04 0  0.88 0.04 0  0.9 0.04 0  0.92 0.04 0  0.9399999999999999 0.04 0  0.96 0.04 0  0.98 0.04 0  1 0.04 0  1.02 0.04 0  1.04 0.04 0  1.06 0.04 0  1.08 0.04 0  1.1 0.04 0  1.12 0.04 0  1.14 0.04 0  1.16 0.04 0  1.18 0.04 0  1.2 0.04 0  1.22 0.04 0  1.24 0.04 0  1.26 0.04 0  1.28 0.04 0  1.3 0.04 0  1.32 0.04 0  1.34 0.04 0  1.36 0.04 0  1.38 0.04 0  1.4 0.04 0  1.42 0.04 0  1.44 0.04 0  1.46 0.04 0  1.48 0.04 0  1.5 0.04 0  1.52 0.04 0  1.54 0.04 0  1.56 0.04 0  1.58 0.04 0  1.6 0.04 0  1.62 0.04 0  1.64 0.04 0  1.66 0.04 0  1.68 0.04 0  1.7 0.04 0  1.72 0.04 0  1.74 0.04 0  1.76 0.04 0  1.78 0.04 0  1.8 0.04 0  1.82 0.04 0  1.84 0.04 0  1.86 0.04 0  1.88 0.04 0  1.9 0.04 0  1.92 0.04 0  1.94 0.04 0  1.96 0.04 0  1.98 0.04 0  2 0.04 0  0 0.06 0  0.02 0.06 0  0.04 0.06 0  0.06 0.06 0  0.08 0.06 0  0.1 0.06 0  0.12 0.06 0  0.14 0.06 0  0.16 0.06 0  0.18 0.06 0  0.2 0.06 0  0.22 0.06 0  0.24 0.06 0  0.26 0.06 0  0.28 0.06 0  0.3 0.06 0  0.32 0.06 0  0.34 0.06 0  0.36 0.06 0  0.38 0.06 0  0.4 0.06 0  0.42 0.06 0  0.44 0.06 0  0.46 0.06 0  0.48 0.06 0  0.5 0.06 0  0.52 0.06 0  0.54 0.06 0  0.5600000000000001 0.06 0  0.58 0.06 0  0.6 0.06 0  0.62 0.06 0  0.64 0.06 0  0.66 0.06 0  0.68 0.06 0  0.7 0.06 0  0.72 0.06 0  0.74 0.06 0  0.76 0.06 0  0.78 0.06 0  0.8 0.06 0  0.82 0.06 0  0.84 0.06 0  0.86 0.06 0  0.88 0.06 0  0.9 0.06 0  0.92 0.06 0  0.9399999999999999 0.06 0  0.96 0.06 0  0.98 0.06 0  1 0.06 0  1.02 0.06 0  1.04 0.06 0  1.06 0.06 0  1.08 0.06 0  1.1 0.06 0  1.12 0.06 0  1.14 0.06 0  1.16 0.06 0  1.18 0.06 0  1.2 0.06 0  1.22 0.06 0  1.24 0.06 0  1.26 0.06 0  1.28 0.06 0  1.3 0.06 0  1.32 0.06 0  1.34 0.06 0  1.36 0.06 0  1.38 0.06 0  1.4 0.06 0  1.42 0.06 0  1.44 0.06 0  1.46 0.06 0  1.48 0.06 0  1.5 0.06 0  1.52 0.06 0  1.54 0.06 0  1.56 0.06 0  1.58 0.06 0  1.6 0.06 0  1.62 0.06 0  1.64 0.06 0  1.66 0.06 0  1.68 0.06 0  1.7 0.06 0  1.72 0.06 0  1.74 0.06 0  1.76 0.06 0  1.78 0.06 0  1.8 0.06 0  1.82 0.06 0  1.84 0.06 0  1.86 0.06 0  1.88 0.06 0  1.9 0.06 0  1.92 0.06 0  1.94 0.06 0  1.96 0.06 0  1.98 0.06 0  2 0.06 0  0 0.08 0  0.02 0.08 0  0.04 0.08 0  0.06 0.08 0  0.08 0.08 0  0.1 0.08 0  0.12 0.08 0  0.14 0.08 0  0.16 0.08 0  0.18 0.08 0  0.2 0.08 0  0.22 0.08 0  0.24 0.08 0  0.26 0.08 0  0.28 0.08 0  0.3 0.08 0  0.32 0.08 0  0.34 0.08 0  0.36 0.08 0  0.38 0.08 0  0.4 0.08 0  0.42 0.08 0  0.44 0.08 0  0.46 0.08 0  0.48 0.08 0  0.5 0.08 0  0.52 0.08 0  0.54 0.08 0  0.5600000000000001 0.08 0  0.58 0.08 0  0.6 0.08 0  0.62 0.08 0  0.64 0.08 0  0.66 0.08 0  0.68 0.08 0  0.7 0.08 0  0.72 0.08 0  0.74 0.08 0  0.76 0.08 0  0.78 0.08 0  0.8 0.08 0  0.82 0.08 0  0.84 0.08 0  0.86 0.08 0  0.88 0.08 0  0.9 0.08 0  0.92 0.08 0  0.9399999999999999 0.08 0  0.96 0.08 0  0.98 0.08 0  1 0.08 0  1.02 0.08 0  1.04 0.08 0  1.06 0.08 0  1.08 0.08 0  1.1 0.08 0  1.12 0.08 0  1.14 0.08 0  1.16 0.08 0  1.18 0.08 0  1.2 0.08 0  1.22 0.08 0  1.24 0.08 0  1.26 0.08 0  1.28 0.08 0  1.3 0.08 0  1.32 0.08 0  1.34 0.08 0  1.36 0.08 0  1.38 0.08 0  1.4 0.08 0  1.42 0.08 0  1.44 0.08 0  1.46 0.08 0  1.48 0.08 0  1.5 0.08 0  1.52 0.08 0  1.54 0.08 0  1.56 0.08 0  1.58 0.08 0  1.6 0.08 0  1.62 0.08 0  1.64 0.08 0  1.66 0.08 0  1.68 0.08 0  1.7 0.08 0  1.72 0.08 0  1.74 0.08 0  1.76 0.08 0  1.78 0.08 0  1.8 0.08 0  1.82 0.08 0  1.84 0.08 0  1.86 0.08 0  1.88 0.08 0  1.9 0.08 0  1.92 0.08 0  1.94 0.08 0  1.96 0.08 0  1.98 0.08 0  2 0.08 0  0 0.1 0  0.02 0.1 0  0.04 0.1 0  0.06 0.1 0  0.08 0.1 0  0.1 0.1 0  0.12 0.1 0  0.14 0.1 0  0.16 0.1 0  0.18 0.1 0  0.2 0.1 0  0.22 0.1 0  0.24 0.1 0  0.26 0.1 0  0.28 0.1 0  0.3 0.1 0  0.32 0.1 0  0.34 0.1 0  0.36 0.1 0  0.38 0.1 0  0.4 0.1 0  0.42 0.1 0  0.44 0.1 0  0.46 0.1 0  0.48 0.1 0  0.5 0.1 0  0.52 0.1 0  0.54 0.1 0  0.5600000000000001 0.1 0  0.58 0.1 0  0.6 0.1 0  0.62 0.1 0  0.64 0.1 0  0.66 0.1 0  0.68 0.1 0  0.7 0.1 0  0.72 0.1 0  0.74 0.1 0  0.76 0.1 0  0.78 0.1 0  0.8 0.1 0  0.82 0.1 0  0.84 0.1 0  0.86 0.1 0  0.88 0.1 0  0.9 0.1 0  0.92 0.1 0  0.9399999999999999 0.1 0  0.96 0.1 0  0.98 0.1 0  1 0.1 0  1.02 0.1 0  1.04 0.1 0  1.06 0.1 0  1.08 0.1 0  1.1 0.1 0  1.12 0.1 0  1.14 0.1 0  1.16 0.1 0  1.18 0.1 0  1.2 0.1 0  1.22 0.1 0  1.24 0.1 0  1.26 0.1 0  1.28 0.1 0  1.3 0.1 0  1.32 0.1 0  1.34 0.1 0  1.36 0.1 0  1.38 0.1 0  1.4 0.1 0  1.42 0.1 0  1.44 0.1 0  1.46 0.1 0  1.48 0.1 0  1.5 0.1 0  1.52 0.1 0  1.54 0.1 0  1.56 0.1 0  1.58 0.1 0  1.6 0.1 0  1.62 0.1 0  1.64 0.1 0  1.66 0.1 0  1.68 0.1 0  1.7 0.1 0  1.72 0.1 0  1.74 0.1 0  1.76 0.1 0  1.78 0.1 0  1.8 0.1 0  1.82 0.1 0  1.84 0.1 0  1.86 0.1 0  1.88 0.1 0  1.9 0.1 0  1.92 0.1 0  1.94 0.1 0  1.96 0.1 0  1.98 0.1 0  2 0.1 0  0 0.12 0  0.02 0.12 0  0.04 0.12 0  0.06 0.12 0  0.08 0.12 0  0.1 0.12 0  0.12 0.12 0  0.14 0.12 0  0.16 0.12 0  0.18 0.12 0  0.2 0.12 0  0.22 0.12 0  0.24 0.12 0  0.26 0.12 0  0.28 0.12 0  0.3 0.12 0  0.32 0.12 0  0.34 0.12 0  0.36 0.12 0  0.38 0.12 0  0.4 0.12 0  0.42 0.12 0  0.44 0.12 0  0.46 0.12 0  0.48 0.12 0  0.5 0.12 0  0.52 0.12 0  0.54 0.12 0  0.5600000000000001 0.12 0  0.58 0.12 0  0.6 0.12 0  0.62 0.12 0  0.64 0.12 0  0.66 0.12 0  0.68 0.12 0  0.7 0.12 0  0.72 0.12 0  0.74 0.12 0  0.76 0.12 0  0.78 0.12 0  0.8 0.12 0  0.82 0.12 0  0.84 0.12 0  0.86 0.12 0  0.88 0.12 0  0.9 0.12 0  0.92 0.12 0  0.9399999999999999 0.12 0  0.96 0.12 0  0.98 0.12 0  1 0.12 0  1.02 0.12 0  1.04 0.12 0  1.06 0.12 0  1.08 0.12 0  1.1 0.12 0  1.12 0.12 0  1.14 0.12 0  1.16 0.12 0  1.18 0.12 0  1.2 0.12 0  1.22 0.12 0  1.24 0.12 0  1.26 0.12 0  1.28 0.12 0  1.3 0.12 0  1.32 0.12 0  1.34 0.12 0  1.36 0.12 0  1.38 0.12 0  1.4 0.12 0  1.42 0.12 0  1.44 0.12 0  1.46 0.12 0  1.48 0.12 0  1.5 0.12 0  1.52 0.12 0  1.54 0.12 0  1.56 0.12 0  1.58 0.12 0  1.6 0.12 0  1.62 0.12 0  1.64 0.12 0  1.66 0.12 0  1.68 0.12 0  1.7 0.12 0  1.72 0.12 0  1.74 0.12 0  1.76 0.12 0  1.78 0.12 0  1.8 0.12 0  1.82 0.12 0  1.84 0.12 0  1.86 0.12 0  1.88 0.12 0  1.9 0.12 0  1.92 0.12 0  1.94 0.12 0  1.96 0.12 0  1.98 0.12 0  2 0.12 0  0 0.14 0  0.02 0.14 0  0.04 0.14 0  0.06 0.14 0  0.08 0.14 0  0.1 0.14 0  0.12 0.14 0  0.14 0.14 0  0.16 0.14 0  0.18 0.14 0  0.2 0.14 0  0.22 0.14 0  0.24 0.14 0  0.26 0.14 0  0.28 0.14 0  0.3 0.14 0  0.32 0.14 0  0.34 0.14 0  0.36 0.14 0  0.38 0.14 0  0.4 0.14 0  0.42 0.14 0  0.44 0.14 0  0.46 0.14 0  0.48 0.14 0  0.5 0.14 0  0.52 0.14 0  0.54 0.14 0  0.5600000000000001 0.14 0  0.58 0.14 0  0.6 0.14 0  0.62 0.14 0  0.64 0.14 0  0.66 0.14 0  0.68 0.14 0  0.7 0.14 0  0.72 0.14 0  0.74 0.14 0  0.76 0.14 0  0.78 0.14 0  0.8 0.14 0  0.82 0.14 0  0.84 0.14 0  0.86 0.14 0  0.88 0.14 0  0.9 0.14 0  0.92 0.14 0  0.9399999999999999 0.14 0  0.96 0.14 0  0.98 0.14 0  1 0.14 0  1.02 0.14 0  1.04 0.14 0  1.06 0.14 0  1.08 0.14 0  1.1 0.14 0  1.12 0.14 0  1.14 0.14 0  1.16 0.14 0  1.18 0.14 0  1.2 0.14 0  1.22 0.14 0  1.24 0.14 0  1.26 0.14 0  1.28 0.14 0  1.3 0.14 0  1.32 0.14 0  1.34 0.14 0  1.36 0.14 0  1.38 0.14 0  1.4 0.14 0  1.42 0.14 0  1.44 0.14 0  1.46 0.14 0  1.48 0.14 0  1
[...]
<PointData  Scalars="sols[i]"> 
<DataArray  type="Float64"  Name="sols[i]"  format="ascii">2.4574545897338645e-01  1.6347361823070058e-01  1.6347364278797277e-01  1.6347368770434256e-01  1.6347376149944223e-01  1.6347387551547321e-01  1.6347404350585956e-01  1.6347428070682130e-01  1.6347460281493489e-01  1.6347502516173165e-01  1.6347556223790083e-01  1.6347622757352273e-01  1.6347703389894677e-01  1.6347799342665933e-01  1.6347911802799212e-01  1.6348041903561711e-01  1.6348190638405691e-01  1.6348358680488637e-01  1.6348546088533902e-01  1.6348751894891711e-01  1.6348973600955813e-01  1.6349206603006911e-01  1.6349443555019472e-01  1.6349674250391061e-01  1.6349885515750268e-01  1.6350061549678777e-01  1.6350185097338021e-01  1.6350239192592644e-01  1.6350209480247480e-01  1.6350086943774128e-01  1.6349870731851066e-01  1.6349570695059915e-01  1.6349209220134098e-01  1.6348821998584231e-01  1.6348457488662968e-01  1.6348175032937390e-01  1.6348042043965760e-01  1.6348131396893292e-01  1.6348515911204123e-01  1.6349260604922713e-01  1.6350422444159093e-01  1.6352046760273986e-01  1.6354163633463648e-01  1.6356785573054416e-01  1.6359906601987564e-01  1.6363502785859102e-01  1.6367534180246190e-01  1.6371948079213675e-01  1.6376683049706869e-01  1.6381672741962569e-01  1.6386848221456948e-01  1.6392138371515841e-01  1.6397469265349132e-01  1.6402765413759299e-01  1.6407956154732078e-01  1.6412987109104166e-01  1.6417829843643555e-01  1.6422478409742897e-01  1.6426936641138357e-01  1.6431214077676143e-01  1.6435343225205226e-01  1.6439409653913198e-01  1.6443564642649913e-01  1.6448036037023236e-01  1.6453154177025600e-01  1.6459323717052043e-01  1.6466949469237507e-01  1.6476447228937224e-01  1.6488344045313574e-01  1.6503300836789259e-01  1.6522085765957553e-01  1.6545717506864938e-01  1.6575715380985301e-01  1.6613904819684125e-01  1.6661407007584811e-01  1.6716902091516242e-01  1.6774635592603132e-01  1.6823148136234486e-01  1.6846917037454526e-01  1.6833193835733357e-01  1.6781207019359301e-01  1.6704817083122980e-01  1.6624640259608303e-01  1.6556269479664773e-01  1.6504917352546924e-01  1.6468389988708831e-01  1.6442076759674326e-01  1.6421959540699274e-01  1.6405524147649267e-01  1.6391595310398502e-01  1.6379820027187555e-01  1.6370173144729794e-01  1.6362638794360801e-01  1.6357077417907792e-01  1.6353218933244146e-01  1.6350714370292141e-01  1.6349199808611975e-01  1.6348349489686814e-01  1.6347910110626296e-01  1.6347715338075683e-01  3.6413239634423433e-01  1.6347361796785481e-01  7.6145236411053932e-02  7.6145251790774512e-02  7.6145279806638877e-02  7.6145324346751891e-02  7.6145390373759364e-02  7.6145483976006234e-02  7.6145612200967994e-02  7.6145782753993557e-02  7.6146003688763647e-02  7.6146283161124831e-02  7.6146629262891577e-02  7.6147049912884707e-02  7.6147552747536984e-02  7.6148144929348502e-02  7.6148832771355979e-02  7.6149621069336496e-02  7.6150512049312571e-02  7.6151503875028809e-02  7.6152588728735510e-02  7.6153750570135237e-02  7.6154962771692786e-02  7.6156185824426598e-02  7.6157366259084938e-02  7.6158436714741373e-02  7.6159316755255918e-02  7.6159916791505591e-02  7.6160143831165872e-02  7.6159909067321313e-02  7.6159136863888255e-02  7.6157774304065284e-02  7.6155800252834693e-02  7.6153232776864005e-02  7.6150133797131786e-02  7.6146610051031335e-02  7.6142809869173517e-02  7.6138916282323721e-02  7.6135139976989660e-02  7.6131709514715692e-02  7.6128828665283324e-02  7.6126670697094417e-02  7.6125368294915036e-02  7.6124984898720952e-02  7.6125490270668242e-02  7.6126738319885229e-02  7.6128446236220504e-02  7.6130173215197341e-02  7.6131296447490629e-02  7.6130979165389814e-02  7.6128121809138721e-02  7.6121286298134166e-02  7.6108590959224148e-02  7.6087585332869814e-02  7.6055126879658597e-02  7.6007282958697867e-02  7.5939260437423134e-02  7.5845318421112140e-02  7.5718602490867593e-02  7.5550959523820307e-02  7.5332903136222984e-02  7.5053850734004945e-02  7.4702574431293106e-02  7.4267759523036644e-02  7.3738795214640399e-02  7.3106741357014379e-02  7.2365132509165528e-02  7.1510757469522360e-02  7.0544353203056007e-02  6.9469752848589028e-02  6.8290726705138041e-02  6.7008482418408372e-02  6.5622473421256183e-02  6.4133431399058610e-02  6.2545568840552276e-02  6.0873571847386121e-02  5.9169474377211644e-02  5.7574083071266720e-02  5.6363287760136362e-02  5.5924129508025083e-02  5.6610548515796250e-02  5.8558066966359588e-02  6.1571160645157240e-02  6.5108932437818734e-02  6.8494253194088209e-02  7.1249478206963174e-02  7.3223891397632579e-02  7.4505806688010975e-02  7.5276379901712057e-02  7.5711673651277372e-02  7.5944579644030064e-02  7.6062592178174723e-02  7.6118575704874125e-02  7.6142637909718619e-02  7.6151173555694882e-02  7.6152756190811077e-02  7.6151669764309635e-02  7.6149922008050888e-02  7.6148355363690537e-02  7.6147247503052545e-02  7.6146633083439649e-02  1.6347690519466321e-01  1.6347364164066669e-01  7.6145251277942499e-02  7.6145273739959676e-02  7.6145312497363643e-02  7.6145370368683310e-02  7.6145450389368430e-02  7.6145555841409682e-02  7.6145690363004628e-02  7.6145857946361598e-02  7.6146062835598827e-02  7.6146309383120864e-02  7.6146601900648953e-02  7.6146944505110836e-02  7.6147340926831994e-02  7.6147794223282092e-02  7.6148306333895452e-02  7.6148877419351807e-02  7.6149504955498090e-02  7.6150182599413252e-02  7.6150898904400327e-02  7.6151636022917635e-02  7.6152368601033374e-02  7.6153063131799231e-02  7.6153678228607496e-02  7.6154166042966293e-02  7.6154474319661783e-02  7.6154550254733763e-02  7.6154345142015176e-02  7.6153819528399974e-02  7.6152948443427695e-02  7.6151726113598148e-02  7.6150169568024409e-02  7.6148320573147937e-02  7.6146245426148632e-02  7.6144032317557050e-02  7.6141786264317932e-02  7.6139622193508991e-02  7.6137657992856281e-02  7.6136007658467647e-02  7.6134755327043849e-02  7.6133929436542375e-02  7.6133500675383353e-02  7.6133349530275257e-02  7.6133235388835749e-02  7.6132761013890979e-02  7.6131332747986016e-02  7.6128113427843772e-02  7.6121964145434554e-02  7.6111366541595130e-02  7.6094311026971104e-02  7.6068135084787103e-02  7.6029310240677897e-02  7.5973194125167814e-02  7.5893785728269672e-02  7.5783524264035243e-02  7.5633129560066514e-02  7.5431387496509558e-02  7.5164774570199780e-02  7.4817096351325274e-02  7.4369522367507768e-02  7.3801207326098947e-02  7.3090195354862539e-02  7.2214486393270744e-02  7.1153775230956243e-02  6.9891269659446462e-02  6.8415254414771406e-02  6.6722028878231324e-02  6.4819033308835330e-02  6.2721385370035465e-02  6.0440810511690125e-02  5.7980652097083606e-02  5.5343598411566580e-02  5.2541827494937389e-02  4.9592048155008096e-02  4.6512199264894576e-02  4.3369216993437099e-02  4.0394935464511936e-02  3.8093917612275867e-02  3.7202128051572081e-02  3.8425420911768565e-02  4.2170972497025963e-02  4.8277135913366832e-02  5.5620307172623520e-02  6.2522107383059675e-02  6.7872514909659371e-02  7.1466156675187173e-02  7.3643283588457592e-02  7.4868298082269455e-02  7.5521478968597400e-02  7.5855704897716730e-02  7.6020710193320087e-02  7.6099029708674895e-02  7.6134135764209104e-02  7.6148276795157760e-02  7.6152629813387496e-02  7.6152731373709648e-02  7.6151281800279302e-02  7.6149563657565922e-02  7.6148152975908642e-02  7.6147284922248579e-02  1.6347772731883464e-01  1.6347368448353444e-01  7.6145277978068623e-02  7.6145311013917333e-02  7.6145364396263182e-02  7.6145439242773047e-02  7.6145536530511038e-02  7.6145656789976812e-02  7.6145800267418851e-02  7.6145967161802317e-02  7.6146157760081337e-02  7.6146372459122619e-02  7.6146611701511338e-02  7.6146875838507433e-02  7.6147164907071616e-02  7.6147478290401013e-02  7.6147814232408143e-02  7.6148169198416465e-02  7.6148537116551007e-02  7.6148908585535580e-02  7.6149270189274004e-02  7.6149604087593956e-02  7.6149888087987783e-02  7.6150096435971482e-02  7.6150201511229032e-02  7.6150176445948570e-02  7.6149998353048656e-02  7.6149652104247359e-02  7.6149133790957557e-02  7.6148453328333532e-02  7.6147635729011731e-02  7.6146720708463581e-02  7.6145760454093450e-02  7.6144815537225435e-02  7.6143949112836465e-02  7.6143219721714075e-02  7.6142673175942033e-02  7.6142334166036385e-02  7.6142198402537567e-02  7.6142224327110403e-02  7.6142311948819971e-02  7.6142266179919232e-02  7.6141784953607614e-02  7.6140417051505732e-02  7.6137498028020931e-02  7.6132084480392312e-02  7.6122869271355378e-02  7.6108073755868352e-02  7.6085311530503130e-02  7.6051407477106189e-02  7.6002142795191144e-02  7.5931894036107297e-02  7.5833165118412593e-02  7.5696042934822683e-02  7.5507654015480125e-02  7.5251714837801478e-02  7.4908170314938349e-02  7.4452674166107999e-02  7.3855679196823981e-02  7.3081612212191796e-02  7.2089146791565042e-02  7.0833014071256958e-02  6.9266163007171880e-02  6.7342570991659037e-02  6.5022677747734334e-02  6.2277388842686035e-02  5.9090845778444950e-02  5.5472187824749740e-02  5.1471870002839322e-02  4.7171445714431569e-02  4.2642429661112806e-02  3.7936612406968731e-02  3.3136848153218074e-02  2.8428904360732973e-02  2.4106084293043811e-02  2.0557333755921278e-02  1.8350808533098624e-02  1.8216366353846124e-02  2.0048214347979855e-02  2.1114431382804177e-02  1.8645109165372226e-02  1.6668931317646365e-02  2.2295593172293623e-02  3.5443555193853914e-02  4.9831156910080776e-02  6.0972239978380367e-02  6.8059346341656932e-02  7.2062213962617125e-02  7.4160549251930358e-02  7.5209129923960852e-02  7.5717247011098693e-02  7.5958432963624894e-02  7.6070877498085374e-02  7.6121942059759862e-02  7.6143883198031101e-02  7.6152091460577540e-02  7.6153969376029695e-02  7.6153138292582856e-02  7.6151407649233935e-02  7.6149699762738138e-02  7.6148508619803976e-02  1.6347951882495163e-01  1.6347375408438042e-01  7.6145319650594873e-02  7.6145365551536504e-02  7.6145435594773020e-02  7.6145528396437387e-02  7.6145642778386702e-02  7.6145776866257939e-02  7.6145928042343117e-02  7.6146093267459039e-02  7.6146269410932152e-02  7.6146453462808100e-02  7.6146642610105661e-02  7.6146834181951006e-02  7.6147025456868175e-02  7.6147213319478865e-02  7.6147393766726912e-02  7.6147561301655689e-02  7.6147708305406819e-02  7.6147824533068051e-02  7.6147896922823310e-02  7.6147909892355217e-02  7.6147846317945245e-02  7.6147689413415334e-02  7.6147425583589987e-02  7.6147048020559910e-02  7.6146560752642478e-02  7.6145982215943306e-02  7.6145347412504144e-02  7.6144707931443595e-02  7.6144129268421151e-02  7.6143685370234027e-02  7.6143450538801477e-02  7.6143489025917929e-02  7.6143842874657017e-02  7.6144518758569951e-02  7.6145474609109337e-02  7.6146606475956433e-02  7.6147735164589697e-02  7.6148589793429672e-02  7.6148778199339115e-02  7.6147734310532816e-02  7.6144667406892311e-02  7.6138486548539774e-02  7.6127671157358343e-02  7.6110124722348751e-02  7.6082986446319209e-02  7.6042387063951708e-02  7.5983139982058120e-02  7.5898332825954068e-02  7.5778754773612927e-02  7.5612089474847544e-02  7.5381875013361660e-02  7.5066290716076636e-02  7.4636938193891764e-02  7.4057868478620559e-02  7.3284880230275490e-02  7.2264393979233982e-02  7.0931338035775310e-02  6.9207371996340472e-02  6.7002634090723670e-02  6.4222494460223975e-02  6.0774085286637677e-02  5.6576825420081453e-02  5.1587945999514648e-02  4.5820127637745990e-02  3.9352976804966709e-02  3.2397171942542241e-02  2.5413827114365722e-02  1.9161719970234851e-02  1.4617122126950306e-02  1.3099806005871326e-02  1.7079147549191785e-02  3.1590593669990924e-02  6.4028786279594491e-02  1.1995958857456958e-01  1.9631936440546610e-01  2.7665104770137483e-01  3.3424358749142696e-01  3.5267933870784807e-01  3.2506499593325089e-01  2.2450887319557350e-01  6.6833554074558738e-02  1.0276489290596614e-02  2.7889327611812315e-02  4.9218449865695124e-02  6.2653760356585458e-02  6.9743357319900459e-02  7.3195581999153533e-02  7.4808597516306155e-02  7.5547482659246337e-02  7.5883827587260616e-02  7.6037032489557510e-02  7.6106702701387710e-02  7.6137761661859399e-02  7.6150654879641219e-02  7.6154913887540990e-02  7.6155154102423475e-02  7.6153724457874244e-02  7.6151898385209985e-02  7.6150446250346907e-02  1.6348278841518590e-01  1.6347386053829671e-01  7.6145380110364230e-02  7.6145439213175112e-02  7.6145525875412109e-02  7.6145635462938746e-02  7.6145764344221614e-02  7.6145908388005265e-02  7.6146062557281513e-02  7.6146221162759431e-02  7.6146378306254661e-02  7.6146528271494471e-02  7.6146665771964495e-02  7.6146786025232255e-02  7.6146884636966797e-02  7.6146957287563211e-02  7.6146999247910699e-02  7.6147004807155041e-02  7.6146966756002160e-02  7.6146876124336682e-02  7.6146722393182098e-02  7.6146494307382045e-02  7.6146181472874511e-02  7.6145776975555732e-02  7.6145281071296811e-02  7.6144705533861309e-02  7.6144078161160145e-02  7.6143445905675691e-02  7.6142875337152166e-02  7.6142449752801863e-02  7.6142262120067625e-02  7.6142404078813244e-02  7.6142951214365248e-02  7.6143944954174508e-02  7.6145371728107897e-02  7.6147140298697041e-02  7.6149058075740433e-02  7.6150806155059148e-02  7.6151910516931307e-02  7.6151703147700811e-02  7.6149261231909876e-02  7.6143312388949766e-02  7.6132111455460907e-02  7.6113260900307136e-02  7.6083442700669981e-02  7.6038097206193131e-02  7.5970996193860788e-02  7.5873694049289439e-02  7.5734838734938678e-02  7.5539265076882842e-02  7.5266725323718600e-02  7.4890094733379375e-02  7.4373060961293591e-02  7.3667433210832564e-02  7.2710469871357278e-02  7.1423038702158090e-02  6.9708980104635318e-02  6.7453654155878784e-02  6.4520340257141845e-02  6.0748473017233115e-02  5.5966489711827695e-02  5.0028724808324106e-02  4.2853465252302221e-02  3.4495359681803221e-02  2.5350956668586971e-02  1.6457790926282204e-02  9.9363043231146843e-03  9.9696393218008956e-03  2.6426610201671943e-02  7.3304955059842539e-02  1.5154612346842714e-01  2.4339813133853516e-01  3.2614851364290132e-01  3.9069900475873298e-01  4.4622873469998792e-01  5.5472689315238388e-01  9.1790226521096396e-01  9.6510539387974137e-01  9.8773921864418779e-01  9.9482441922962328e-01  9.4827902305401468e-01  9.6216349610096918e-01  4.1498874173856704e-01  1.6360098837762485e-01  5.5059981658696668e-03  3.2663642789078087e-02  5.5586391491854112e-02  6.7003759197639803e-02  7.2150251276468624e-02  7.4397231145551967e-02  7.5374062033424102e-02  7.5804069172727404e-02  7.5997653224900097e-02  7.6086836827483434e-02  7.6128325936021493e-02  7.6147137011594826e-02  7.6154784749805082e-02  7.6156872201426834e-02  7.6156315446643821e-02  7.6154767644801044e-02  7.6153287409621614e-02  1.6348837006563627e-01  1.6347401624458255e-01  7.6145463831071528e-02  7.6145533875618468e-02  7.6145634567045012e-02  7.6145757561753138e-02  7.6145896285226472e-02  7.6146044180169126e-02  7.6146193963065961e-02  7.6146337707663270e-02  7.6146467312366364e-02  7.6146575029947622e-02  7.6146653889884772e-02  7.6146697925845649e-02  7.6146702161297514e-02  7.6146662341235100e-02  7.6146574459918792e-02  7.6146434220360215e-02  7.6146236624520941e-02  7.6145975935980340e-02  7.6145646240487849e-02  7.6145242576051334e-02  7.6144762812465253e-02  7.6144210635683954e-02  7.6143599694415268e-02  7.6142958389991536e-02  7.6142334448722301e-02  7.6141796988203975e-02  7.6141434407214589e-02  7.6141347666008996e-02  7.6141637528403680e-02  7.6142386419487479e-02  7.6143634689651393e-02  7.6145351037224862e-02  7.6147397225563046e-02  7.6149487635287699e-02  7.6151143940187571e-02  7.6151642898225902e-02  7.6149950714119105e-02  7.6144631414068020e-02  7.6133710152054848e-02  7.6114471914448659e-02  7.6083187304802610e-02  7.6034702993984529e-02  7.5961861374915354e-02  7.5854798123088679e-02  7.5699974924186453e-02  7.5478958481783057e-02  7.5166912425925922e-02  7.4730634508481483e-02  7.4125797685451883e-02  7.3293013115891301e-02  7.2152793702385046e-02  7.0599840589033749e-02  6.8497738128134478e-02  6.5677231973270439e-02  6.1941230664612656e-02  5.7071637247214396e-02  5.0838125740671945e-02  4.3025546042857084e-02  3.3549445618350528e-02  2.2779450959542528e-02  1.2151369954967762e-02  5.4969417666346915e-03  1.2346987564579035e-02  5.7277157935066048e-02  1.5337998724686691e-01  2.7057787428164892e-01  3.6546952846513270e-01  4.4666261578182409e-01  7.9941218183428298e-01  9.6310019601774388e-01  9.8702221572178805e-01  9.8385830966098609e-01  9.6532228940637943e-01  9.7291932419571625e-01  9.7672544331131217e-01  9.7955041587537328e-01  9.8305585028990361e-01  9.8542776855335457e-01  9.8521784444699434e-01  9.7306996515358024e-01  9.4676515461659883e-01  8.2548485473372590e-01  3.9008232114895675e-01  2.1666928805942001e-01  1.0810897335944925e-01  6.4895420514333738e-02  7.1416169800691293e-02  7.4098835870509194e-02  7.5225631736213022e-02  7.5719194408264523e-02  7.5946894548517163e-02  7.6057073217673243e-02  7.6111988189233995e-02  7.6139330856441867e-02  7.6152287755594517e-02  7.6157580648220466e-02  7.6158869661585138e-02  7.6158306501432682e-02  7.6157264720116954e-02  1.6349740773052326e-01  1.6347423543758802e-01  7.6145575686922609e-02  7.6145651544611073e-02  7.6145760775382376e-02  7.6145891317463008e-02  7.6146033084072515e-02  7.6146176660386825e-02  7.6146312401992711e-02  7.6146430323808204e-02  7.6146520520960603e-02  7.6146573788480748e-02  7.6146582199966686e-02  7.6146539489106574e-02  7.6146441139725199e-02  7.6146284156892424e-02  7.6146066599788190e-02  7.6145787081660879e-02  7.6145444494741144e-02  7.6145038237976956e-02  7.6144569130774900e-02  7.6144040592092094e-02  7.6143460320318476e-02  7.6142843124455614e-02  7.6142215028411731e-02  7.6141617912355644e-02  7.6141113365606236e-02  7.6140782381637004e-02  7.6140718680588901e-02  7.6141016124176203e-02  7.6141747271844945e-02  7.6142934326779294e-02  7.6144510797998902e-02  7.6146271790409184e-02  7.6147811375203864e-02  7.6148446117370372e-02  7.6147123356328797e-02  7.6142308187031840e-02  7.6131834405396046e-02  7.6112694254483332e-02  7.6080731837149279e-02  7.6030198467111718e-02  7.5953137688232752e-02  7.5838487517698866e-02  7.5670824840679024e-02  7.5428827303504781e-02  7.5083080512842806e-02  7.4593421137041205e-02  7.3905717683837732e-02  7.2947766147301668e-02  7.1623610758839926e-02  6.9805531921815031e-02  6.7324107152135784e-02  6.3958330829997703e-02  5.9429962770636870e-02  5.3418022775271787e-02  4.5618452536752778e-02  3.5853270423376812e-02  2.4304816345926818e-02  1.2167171427045806e-02  3.7219811612020297e-03  1.0346208201834722e-02  6.6226539012808908e-02  1.8356655916802009e-01  3.1024535911663742e-01  4.1270792812646351e-01  8.3682373817297984e-01  9.7403726193279427e-01  9.9513935415432442e-01  9.6229966758547592e-01  9.6901387550609985e-01  9.7135733485657205e-01  9.7423644451435698e-01  9.7840249245021094e-01  9.8283568299651269e-01  9.8670437612930728e-01  9.8939040775822806e-01  9.9138623488437205e-01  9.9329350886257728e-01  9.9410894840543540e-01  9.9154249489770341e-01  9.8638475110295321e-01  9.7061779890020428e-01  8.5352413359433910e-01  6.9530431089757316e-01  6.0669973501566132e-01  5.4564834662789852e-01  1.6626231032875846e-01  7.1462240265336943e-02  7.3991151249471462e-02  7.5084570987600352e-02  7.5600404384527198e-02  7.5863602971193198e-02  7.6004681054560985e-02  7.6081700809970898e-02  7.6123448479922570e-02  7.6145384811082920e-02  7.6156197304290102e-02  7.6160897143418116e-02  7.6162462365203173e-02  7.6162650474036087e-02  1.6351137522358236e-01  1.6347453389350333e-01  7.6145720531629366e-02  7.6145794251262597e-02  7.6145903511248406e-02  7.6146033021025683e-02  7.6146168632678896e-02  7.6146297478883268e-02  7.6146407211676939e-02  7.6146485739233424e-02  7.6146521566145917e-02  7.6146504461471240e-02  7.6146426165808315e-02  7.6146280908622799e-02  7.6146065581896558e-02  7.6145779524981791e-02  7.6145424049364599e-02  7.6145002016171526e-02  7.6144517783875348e-02  7.6143977832180063e-02  7.6143392127089898e-02  7.6142774886259090e-02  7.61421452742