<?xml version="1.0"?>
<VTKFile type="UnstructuredGrid"  version="0.1"  >
<UnstructuredGrid>
<Piece  NumberOfPoints="5151" NumberOfCells="10000">
<Points>
<DataArray  type="Float64"  NumberOfComponents="3"  format="ascii">0 0 0  0.02 0 0  0.04 0 0  0.06 0 0  0.08 0 0  0.1 0 0  0.12 0 0  0.14 0 0  0.16 0 0  0.18 0 0  0.2 0 0  0.22 0 0  0.24 0 0  0.26 0 0  0.28 0 0  0.3 0 0  0.32 0 0  0.34 0 0  0.36 0 0  0.38 0 0  0.4 0 0  0.42 0 0  0.44 0 0  0.46 0 0  0.48 0 0  0.5 0 0  0.52 0 0  0.54 0 0  0.5600000000000001 0 0  0.58 0 0  0.6 0 0  0.62 0 0  0.64 0 0  0.66 0 0  0.68 0 0  0.7 0 0  0.72 0 0  0.74 0 0  0.76 0 0  0.78 0 0  0.8 0 0  0.82 0 0  0.84 0 0  0.86 0 0  0.88 0 0  0.9 0 0  0.92 0 0  0.9399999999999999 0 0  0.96 0 0  0.98 0 0  1 0 0  1.02 0 0  1.04 0 0  1.06 0 0  1.08 0 0  1.1 0 0  1.12 0 0  1.14 0 0  1.16 0 0  1.18 0 0  1.2 0 0  1.22 0 0  1.24 0 0  1.26 0 0  1.28 0 0  1.3 0 0  1.32 0 0  1.34 0 0  1.36 0 0  1.38 0 0  1.4 0 0  1.42 0 0  1.44 0 0  1.46 0 0  1.48 0 0  1.5 0 0  1.52 0 0  1.54 0 0  1.56 0 0  1.58 0 0  1.6 0 0  1.62 0 0  1.64 0 0  1.66 0 0  1.68 0 0  1.7 0 0  1.72 0 0  1.74 0 0  1.76 0 0  1.78 0 0  1.8 0 0  1.82 0 0  1.84 0 0  1.86 0 0  1.88 0 0  1.9 0 0  1.92 0 0  1.94 0 0  1.96 0 0  1.98 0 0  2 0 0  0 0.02 0  0.02 0.02 0  0.04 0.02 0  0.06 0.02 0  0.08 0.02 0  0.1 0.02 0  0.12 0.02 0  0.14 0.02 0  0.16 0.02 0  0.18 0.02 0  0.2 0.02 0  0.22 0.02 0  0.24 0.02 0  0.26 0.02 0  0.28 0.02 0  0.3 0.02 0  0.32 0.02 0  0.34 0.02 0  0.36 0.02 0  0.38 0.02 0  0.4 0.02 0  0.42 0.02 0  0.44 0.02 0  0.46 0.02 0  0.48 0.02 0  0.5 0.02 0  0.52 0.02 0  0.54 0.02 0  0.5600000000000001 0.02 0  0.58 0.02 0  0.6 0.02 0  0.62 0.02 0  0.64 0.02 0  0.66 0.02 0  0.68 0.02 0  0.7 0.02 0  0.72 0.02 0  0.74 0.02 0  0.76 0.02 0  0.78 0.02 0  0.8 0.02 0  0.82 0.02 0  0.84 0.02 0  0.86 0.02 0  0.88 0.02 0  0.9 0.02 0  0.92 0.02 0  0.9399999999999999 0.02 0  0.96 0.02 0  0.98 0.02 0  1 0.02 0  1.02 0.02 0  1.04 0.02 0  1.06 0.02 0  1.08 0.02 0  1.1 0.02 0  1.12 0.02 0  1.14 0.02 0  1.16 0.02 0  1.18 0.02 0  1.2 0.02 0  1.22 0.02 0  1.24 0.02 0  1.26 0.02 0  1.28 0.02 0  1.3 0.02 0  1.32 0.02 0  1.34 0.02 0  1.36 0.02 0  1.38 0.02 0  1.4 0.02 0  1.42 0.02 0  1.44 0.02 0  1.46 0.02 0  1.48 0.02 0  1.5 0.02 0  1.52 0.02 0  1.54 0.02 0  1.56 0.02 0  1.58 0.02 0  1.6 0.02 0  1.62 0.02 0  1.64 0.02 0  1.66 0.02 0  1.68 0.02 0  1.7 0.02 0  1.72 0.02 0  1.74 0.02 0  1.76 0.02 0  1.78 0.02 0  1.8 0.02 0  1.82 0.02 0  1.84 0.02 0  1.86 0.02 0  1.88 0.02 0  1.9 0.02 0  1.92 0.02 0  1.94 0.02 0  1.96 0.02 0  1.98 0.02 0  2 0.02 0  0 0.04 0  0.02 0.04 0  0.04 0.04 0  0.06 0.04 0  0.08 0.04 0  0.1 0.04 0  0.12 0.04 0  0.14 0.04 0  0.16 0.04 0  0.18 0.04 0  0.2 0.04 0  0.22 0.04 0  0.24 0.04 0  0.26 0.04 0  0.28 0.04 0  0.3 0.04 0  0.32 0.04 0  0.34 0.04 0  0.36 0.04 0  0.38 0.04 0  0.4 0.04 0  0.42 0.04 0  0.44 0.04 0  0.46 0.04 0  0.48 0.04 0  0.5 0.04 0  0.52 0.04 0  0.54 0.04 0  0.5600000000000001 0.04 0  0.58 0.04 0  0.6 0.04 0  0.62 0.04 0  0.64 0.04 0  0.66 0.04 0  0.68 0.04 0  0.7 0.04 0  0.72 0.04 0  0.74 0.04 0  0.76 0.04 0  0.78 0.04 0  0.8 0.04 0  0.82 0.04 0  0.84 0.04 0  0.86 0.04 0  0.88 0.04 0  0.9 0.04 0  0.92 0.04 0  0.9399999999999999 0.04 0  0.96 0.04 0  0.98 0.04 0  1 0.04 0  1.02 0.04 0  1.04 0.04 0  1.06 0.04 0  1.08 0.04 0  1.1 0.04 0  1.12 0.04 0  1.14 0.04 0  1.16 0.04 0  1.18 0.04 0  1.2 0.04 0  1.22 0.04 0  1.24 0.04 0  1.26 0.04 0  1.28 0.04 0  1.3 0.04 0  1.32 0.04 0  1.34 0.04 0  1.36 0.04 0  1.38 0.04 0  1.4 0.04 0  1.42 0.04 0  1.44 0.04 0  1.46 0.04 0  1.48 0.04 0  1.5 0.04 0  1.52 0.04 0  1.54 0.04 0  1.56 0.04 0  1.58 0.04 0  1.6 0.04 0  1.62 0.04 0  1.64 0.04 0  1.66 0.04 0  1.68 0.04 0  1.7 0.04 0  1.72 0.04 0  1.74 0.04 0  1.76 0.04 0  1.78 0.04 0  1.8 0.04 0  1.82 0.04 0  1.84 0.04 0  1.86 0.04 0  1.88 0.04 0  1.9 0.04 0  1.92 0.04 0  1.94 0.04 0  1.96 0.04 0  1.98 0.04 0  2 0.04 0  0 0.06 0  0.02 0.06 0  0.04 0.06 0  0.06 0.06 0  0.08 0.06 0  0.1 0.06 0  0.12 0.06 0  0.14 0.06 0  0.16 0.06 0  0.18 0.06 0  0.2 0.06 0  0.22 0.06 0  0.24 0.06 0  0.26 0.06 0  0.28 0.06 0  0.3 0.06 0  0.32 0.06 0  0.34 0.06 0  0.36 0.06 0  0.38 0.06 0  0.4 0.06 0  0.42 0.06 0  0.44 0.06 0  0.46 0.06 0  0.48 0.06 0  0.5 0.06 0  0.52 0.06 0  0.54 0.06 0  0.5600000000000001 0.06 0  0.58 0.06 0  0.6 0.06 0  0.62 0.06 0  0.64 0.06 0  0.66 0.06 0  0.68 0.06 0  0.7 0.06 0  0.72 0.06 0  0.74 0.06 0  0.76 0.06 0  0.78 0.06 0  0.8 0.06 0  0.82 0.06 0  0.84 0.06 0  0.86 0.06 0  0.88 0.06 0  0.9 0.06 0  0.92 0.06 0  0.9399999999999999 0.06 0  0.96 0.06 0  0.98 0.06 0  1 0.06 0  1.02 0.06 0  1.04 0.06 0  1.06 0.06 0  1.08 0.06 0  1.1 0.06 0  1.12 0.06 0  1.14 0.06 0  1.16 0.06 0  1.18 0.06 0  1.2 0.06 0  1.22 0.06 0  1.24 0.06 0  1.26 0.06 0  1.28 0.06 0  1.3 0.06 0  1.32 0.06 0  1.34 0.06 0  1.36 0.06 0  1.38 0.06 0  1.4 0.06 0  1.42 0.06 0  1.44 0.06 0  1.46 0.06 0  1.48 0.06 0  1.5 0.06 0  1.52 0.06 0  1.54 0.06 0  1.56 0.06 0  1.58 0.06 0  1.6 0.06 0  1.62 0.06 0  1.64 0.06 0  1.66 0.06 0  1.68 0.06 0  1.7 0.06 0  1.72 0.06 0  1.74 0.06 0  1.76 0.06 0  1.78 0.06 0  1.8 0.06 0  1.82 0.06 0  1.84 0.06 0  1.86 0.06 0  1.88 0.06 0  1.9 0.06 0  1.92 0.06 0  1.94 0.06 0  1.96 0.06 0  1.98 0.06 0  2 0.06 0  0 0.08 0  0.02 0.08 0  0.04 0.08 0  0.06 0.08 0  0.08 0.08 0  0.1 0.08 0  0.12 0.08 0  0.14 0.08 0  0.16 0.08 0  0.18 0.08 0  0.2 0.08 0  0.22 0.08 0  0.24 0.08 0  0.26 0.08 0  0.28 0.08 0  0.3 0.08 0  0.32 0.08 0  0.34 0.08 0  0.36 0.08 0  0.38 0.08 0  0.4 0.08 0  0.42 0.08 0  0.44 0.08 0  0.46 0.08 0  0.48 0.08 0  0.5 0.08 0  0.52 0.08 0  0.54 0.08 0  0.5600000000000001 0.08 0  0.58 0.08 0  0.6 0.08 0  0.62 0.08 0  0.64 0.08 0  0.66 0.08 0  0.68 0.08 0  0.7 0.08 0  0.72 0.08 0  0.74 0.08 0  0.76 0.08 0  0.78 0.08 0  0.8 0.08 0  0.82 0.08 0  0.84 0.08 0  0.86 0.08 0  0.88 0.08 0  0.9 0.08 0  0.92 0.08 0  0.9399999999999999 0.08 0  0.96 0.08 0  0.98 0.08 0  1 0.08 0  1.02 0.08 0  1.04 0.08 0  1.06 0.08 0  1.08 0.08 0  1.1 0.08 0  1.12 0.08 0  1.14 0.08 0  1.16 0.08 0  1.18 0.08 0  1.2 0.08 0  1.22 0.08 0  1.24 0.08 0  1.26 0.08 0  1.28 0.08 0  1.3 0.08 0  1.32 0.08 0  1.34 0.08 0  1.36 0.08 0  1.38 0.08 0  1.4 0.08 0  1.42 0.08 0  1.44 0.08 0  1.46 0.08 0  1.48 0.08 0  1.5 0.08 0  1.52 0.08 0  1.54 0.08 0  1.56 0.08 0  1.58 0.08 0  1.6 0.08 0  1.62 0.08 0  1.64 0.08 0  1.66 0.08 0  1.68 0.08 0  1.7 0.08 0  1.72 0.08 0  1.74 0.08 0  1.76 0.08 0  1.78 0.08 0  1.8 0.08 0  1.82 0.08 0  1.84 0.08 0  1.86 0.08 0  1.88 0.08 0  1.9 0.08 0  1.92 0.08 0  1.94 0.08 0  1.96 0.08 0  1.98 0.08 0  2 0.08 0  0 0.1 0  0.02 0.1 0  0.04 0.1 0  0.06 0.1 0  0.08 0.1 0  0.1 0.1 0  0.12 0.1 0  0.14 0.1 0  0.16 0.1 0  0.18 0.1 0  0.2 0.1 0  0.22 0.1 0  0.24 0.1 0  0.26 0.1 0  0.28 0.1 0  0.3 0.1 0  0.32 0.1 0  0.34 0.1 0  0.36 0.1 0  0.38 0.1 0  0.4 0.1 0  0.42 0.1 0  0.44 0.1 0  0.46 0.1 0  0.48 0.1 0  0.5 0.1 0  0.52 0.1 0  0.54 0.1 0  0.5600000000000001 0.1 0  0.58 0.1 0  0.6 0.1 0  0.62 0.1 0  0.64 0.1 0  0.66 0.1 0  0.68 0.1 0  0.7 0.1 0  0.72 0.1 0  0.74 0.1 0  0.76 0.1 0  0.78 0.1 0  0.8 0.1 0  0.82 0.1 0  0.84 0.1 0  0.86 0.1 0  0.88 0.1 0  0.9 0.1 0  0.92 0.1 0  0.9399999999999999 0.1 0  0.96 0.1 0  0.98 0.1 0  1 0.1 0  1.02 0.1 0  1.04 0.1 0  1.06 0.1 0  1.08 0.1 0  1.1 0.1 0  1.12 0.1 0  1.14 0.1 0  1.16 0.1 0  1.18 0.1 0  1.2 0.1 0  1.22 0.1 0  1.24 0.1 0  1.26 0.1 0  1.28 0.1 0  1.3 0.1 0  1.32 0.1 0  1.34 0.1 0  1.36 0.1 0  1.38 0.1 0  1.4 0.1 0  1.42 0.1 0  1.44 0.1 0  1.46 0.1 0  1.48 0.1 0  1.5 0.1 0  1.52 0.1 0  1.54 0.1 0  1.56 0.1 0  1.58 0.1 0  1.6 0.1 0  1.62 0.1 0  1.64 0.1 0  1.66 0.1 0  1.68 0.1 0  1.7 0.1 0  1.72 0.1 0  1.74 0.1 0  1.76 0.1 0  1.78 0.1 0  1.8 0.1 0  1.82 0.1 0  1.84 0.1 0  1.86 0.1 0  1.88 0.1 0  1.9 0.1 0  1.92 0.1 0  1.94 0.1 0  1.96 0.1 0  1.98 0.1 0  2 0.1 0  0 0.12 0  0.02 0.12 0  0.04 0.12 0  0.06 0.12 0  0.08 0.12 0  0.1 0.12 0  0.12 0.12 0  0.14 0.12 0  0.16 0.12 0  0.18 0.12 0  0.2 0.12 0  0.22 0.12 0  0.24 0.12 0  0.26 0.12 0  0.28 0.12 0  0.3 0.12 0  0.32 0.12 0  0.34 0.12 0  0.36 0.12 0  0.38 0.12 0  0.4 0.12 0  0.42 0.12 0  0.44 0.12 0  0.46 0.12 0  0.48 0.12 0  0.5 0.12 0  0.52 0.12 0  0.54 0.12 0  0.5600000000000001 0.12 0  0.58 0.12 0  0.6 0.12 0  0.62 0.12 0  0.64 0.12 0  0.66 0.12 0  0.68 0.12 0  0.7 0.12 0  0.72 0.12 0  0.74 0.12 0  0.76 0.12 0  0.78 0.12 0  0.8 0.12 0  0.82 0.12 0  0.84 0.12 0  0.86 0.12 0  0.88 0.12 0  0.9 0.12 0  0.92 0.12 0  0.9399999999999999 0.12 0  0.96 0.12 0  0.98 0.12 0  1 0.12 0  1.02 0.12 0  1.04 0.12 0  1.06 0.12 0  1.08 0.12 0  1.1 0.12 0  1.12 0.12 0  1.14 0.12 0  1.16 0.12 0  1.18 0.12 0  1.2 0.12 0  1.22 0.12 0  1.24 0.12 0  1.26 0.12 0  1.28 0.12 0  1.3 0.12 0  1.32 0.12 0  1.34 0.12 0  1.36 0.12 0  1.38 0.12 0  1.4 0.12 0  1.42 0.12 0  1.44 0.12 0  1.46 0.12 0  1.48 0.12 0  1.5 0.12 0  1.52 0.12 0  1.54 0.12 0  1.56 0.12 0  1.58 0.12 0  1.6 0.12 0  1.62 0.12 0  1.64 0.12 0  1.66 0.12 0  1.68 0.12 0  1.7 0.12 0  1.72 0.12 0  1.74 0.12 0  1.76 0.12 0  1.78 0.12 0  1.8 0.12 0  1.82 0.12 0  1.84 0.12 0  1.86 0.12 0  1.88 0.12 0  1.9 0.12 0  1.92 0.12 0  1.94 0.12 0  1.96 0.12 0  1.98 0.12 0  2 0.12 0  0 0.14 0  0.02 0.14 0  0.04 0.14 0  0.06 0.14 0  0.08 0.14 0  0.1 0.14 0  0.12 0.14 0  0.14 0.14 0  0.16 0.14 0  0.18 0.14 0  0.2 0.14 0  0.22 0.14 0  0.24 0.14 0  0.26 0.14 0  0.28 0.14 0  0.3 0.14 0  0.32 0.14 0  0.34 0.14 0  0.36 0.14 0  0.38 0.14 0  0.4 0.14 0  0.42 0.14 0  0.44 0.14 0  0.46 0.14 0  0.48 0.14 0  0.5 0.14 0  0.52 0.14 0  0.54 0.14 0  0.5600000000000001 0.14 0  0.58 0.14 0  0.6 0.14 0  0.62 0.14 0  0.64 0.14 0  0.66 0.14 0  0.68 0.14 0  0.7 0.14 0  0.72 0.14 0  0.74 0.14 0  0.76 0.14 0  0.78 0.14 0  0.8 0.14 0  0.82 0.14 0  0.84 0.14 0  0.86 0.14 0  0.88 0.14 0  0.9 0.14 0  0.92 0.14 0  0.9399999999999999 0.14 0  0.96 0.14 0  0.98 0.14 0  1 0.14 0  1.02 0.14 0  1.04 0.14 0  1.06 0.14 0  1.08 0.14 0  1.1 0.14 0  1.12 0.14 0  1.14 0.14 0  1.16 0.14 0  1.18 0.14 0  1.2 0.14 0  1.22 0.14 0  1.24 0.14 0  1.26 0.14 0  1.28 0.14 0  1.3 0.14 0  1.32 0.14 0  1.34 0.14 0  1.36 0.14 0  1.38 0.14 0  1.4 0.14 0  1.42 0.14 0  1.44 0.14 0  1.46 0.14 0  1.48 0.14 0  1
[...]
<PointData  Scalars="sols[i]"> 
<DataArray  type="Float64"  Name="sols[i]"  format="ascii">2.0108002798080969e-04  1.3405914297648293e-04  1.3405914314568930e-04  1.3405914347263830e-04  1.3405914405995186e-04  1.3405914507959443e-04  1.3405914680800779e-04  1.3405914966887510e-04  1.3405915427165064e-04  1.3405916141517245e-04  1.3405917200142616e-04  1.3405918679460890e-04  1.3405920600563709e-04  1.3405922881464362e-04  1.3405925310411838e-04  1.3405927566156688e-04  1.3405929287889498e-04  1.3405930176573752e-04  1.3405930092867793e-04  1.3405929103992741e-04  1.3405927448198110e-04  1.3405925438901529e-04  1.3405923368353076e-04  1.3405921451069652e-04  1.3405919809817755e-04  1.3405918487886285e-04  1.3405917472145945e-04  1.3405916717391394e-04  1.3405916166719185e-04  1.3405915765490653e-04  1.3405915468689533e-04  1.3405915243059718e-04  1.3405915066030223e-04  1.3405914923244662e-04  1.3405914805929468e-04  1.3405914708728006e-04  1.3405914628187408e-04  1.3405914561839892e-04  1.3405914507728798e-04  1.3405914464219377e-04  1.3405914429960702e-04  1.3405914403900556e-04  1.3405914385292093e-04  1.3405914373663659e-04  1.3405914368755625e-04  1.3405914370448292e-04  1.3405914378713306e-04  1.3405914393616695e-04  1.3405914415390901e-04  1.3405914444576057e-04  1.3405914482214599e-04  1.3405914530060855e-04  1.3405914590748240e-04  1.3405914667852394e-04  1.3405914765805992e-04  1.3405914889660553e-04  1.3405915044746930e-04  1.3405915236360316e-04  1.3405915469703121e-04  1.3405915750461169e-04  1.3405916086561489e-04  1.3405916491758966e-04  1.3405916991534060e-04  1.3405917631040685e-04  1.3405918483201966e-04  1.3405919652492222e-04  1.3405921267271471e-04  1.3405923452860819e-04  1.3405926281853886e-04  1.3405929708907427e-04  1.3405933510921822e-04  1.3405937264693925e-04  1.3405940402408360e-04  1.3405942366746880e-04  1.3405942802975442e-04  1.3405941667603361e-04  1.3405939208699746e-04  1.3405935861173228e-04  1.3405932115752032e-04  1.3405928404865513e-04  1.3405925035835727e-04  1.3405922177955908e-04  1.3405919885247635e-04  1.3405918132119388e-04  1.3405916847568028e-04  1.3405915942080922e-04  1.3405915326023514e-04  1.3405914920302834e-04  1.3405914660964265e-04  1.3405914499663502e-04  1.3405914401813556e-04  1.3405914343791721e-04  1.3405914310093790e-04  1.3405914290890079e-04  1.3405914280134392e-04  1.3405914274206804e-04  1.3405914270991841e-04  1.3405914269281867e-04  1.3405914268406702e-04  1.3405914268014297e-04  4.0208697067616403e-04  1.3405914298389107e-04  6.7029106721539224e-05  6.7029106816595470e-05  6.7029107005100715e-05  6.7029107348165972e-05  6.7029107950758058e-05  6.7029108985627961e-05  6.7029110725297012e-05  6.7029113576413599e-05  6.7029118097438958e-05  6.7029124959203844e-05  6.7029134790700138e-05  6.7029147874130162e-05  6.7029163756001988e-05  6.7029180995789006e-05  6.7029197279771876e-05  6.7029209922938988e-05  6.7029216632057153e-05  6.7029216287691992e-05  6.7029209354560487e-05  6.7029197615999666e-05  6.7029183402850020e-05  6.7029168844205447e-05  6.7029155461666528e-05  6.7029144096254241e-05  6.7029135018347236e-05  6.7029128102803957e-05  6.7029123006429002e-05  6.7029119313861130e-05  6.7029116635411857e-05  6.7029114656325827e-05  6.7029113148565290e-05  6.7029111960435102e-05  6.7029110997407552e-05  6.7029110202812924e-05  6.7029109542499107e-05  6.7029108994428322e-05  6.7029108542561371e-05  6.7029108173841817e-05  6.7029107877117258e-05  6.7029107643055112e-05  6.7029107464371086e-05  6.7029107335940779e-05  6.7029107254601520e-05  6.7029107218674882e-05  6.7029107227400907e-05  6.7029107280528927e-05  6.7029107378277966e-05  6.7029107521794431e-05  6.7029107714128481e-05  6.7029107961630302e-05  6.7029108275510301e-05  6.7029108673143955e-05  6.7029109178648867e-05  6.7029109822372237e-05  6.7029110639197102e-05  6.7029111665946317e-05  6.7029112938632064e-05  6.7029114490986446e-05  6.7029116356733383e-05  6.7029118579442785e-05  6.7029121235042850e-05  6.7029124471818728e-05  6.7029128568669286e-05  6.7029134001539003e-05  6.7029141488747759e-05  6.7029151962498925e-05  6.7029166401239940e-05  6.7029185481773805e-05  6.7029209089186840e-05  6.7029235827372521e-05  6.7029262754857516e-05  6.7029285687024369e-05  6.7029300368752885e-05  6.7029304051516344e-05  6.7029296367509850e-05  6.7029279141320422e-05  6.7029255570658940e-05  6.7029229242071369e-05  6.7029203276480661e-05  6.7029179842080096e-05  6.7029160089319999e-05  6.7029144345773003e-05  6.7029132387438385e-05  6.7029123685613588e-05  6.7029117595487572e-05  6.7029113482578042e-05  6.7029110794291152e-05  6.7029109088917707e-05  6.7029108036175598e-05  6.7029107402236259e-05  6.7029107029004418e-05  6.7029106813720898e-05  6.7029106691836191e-05  6.7029106623993310e-05  6.7029106586820138e-05  6.7029106566762059e-05  6.7029106556131389e-05  6.7029106550678042e-05  6.7029106548151973e-05  1.3405914267963028e-04  1.3405914317797079e-04  6.7029106827708800e-05  6.7029106984888557e-05  6.7029107299514825e-05  6.7029107878575063e-05  6.7029108910431778e-05  6.7029110714519920e-05  6.7029113814725099e-05  6.7029119032093357e-05  6.7029127563432512e-05  6.7029140952159922e-05  6.7029160786501163e-05  6.7029187973603369e-05  6.7029221706537025e-05  6.7029258763223371e-05  6.7029293795809686e-05  6.7029320558314876e-05  6.7029333756576289e-05  6.7029331022598219e-05  6.7029313938687748e-05  6.7029287153085054e-05  6.7029256190986690e-05  6.7029225650567985e-05  6.7029198490809345e-05  6.7029176114500395e-05  6.7029158748326548e-05  6.7029145870601227e-05  6.7029136599752517e-05  6.7029129993923108e-05  6.7029125234706568e-05  6.7029121702307057e-05  6.7029118974565075e-05  6.7029116787551809e-05  6.7029114986579298e-05  6.7029113483617277e-05  6.7029112226748197e-05  6.7029111181301197e-05  6.7029110319909117e-05  6.7029109618433659e-05  6.7029109055241113e-05  6.7029108611972997e-05  6.7029108274521603e-05  6.7029108033416819e-05  6.7029107883321876e-05  6.7029107821816618e-05  6.7029107847984149e-05  6.7029107961402606e-05  6.7029108162010921e-05  6.7029108451101274e-05  6.7029108833487034e-05  6.7029109320662940e-05  6.7029109934400136e-05  6.7029110709798342e-05  6.7029111696655571e-05  6.7029112958288961e-05  6.7029114567559661e-05  6.7029116600595551e-05  6.7029119129537464e-05  6.7029122216898167e-05  6.7029125916325677e-05  6.7029130288027720e-05  6.7029135441140926e-05  6.7029141617244175e-05  6.7029149323443514e-05  6.7029159501500520e-05  6.7029173673778346e-05  6.7029193941551971e-05  6.7029222660838970e-05  6.7029261661252668e-05  6.7029311075396438e-05  6.7029368105904060e-05  6.7029426180481921e-05  6.7029475415131523e-05  6.7029505689461291e-05  6.7029510994451002e-05  6.7029491345756438e-05  6.7029451722239785e-05  6.7029399815862260e-05  6.7029343724447611e-05  6.7029290039724644e-05  6.7029242916280120e-05  6.7029204207585572e-05  6.7029174099090082e-05  6.7029151767212863e-05  6.7029135899030552e-05  6.7029125057865672e-05  6.7029117912840934e-05  6.7029113355789515e-05  6.7029110534572677e-05  6.7029108834341223e-05  6.7029107834219525e-05  6.7029107258618760e-05  6.7029106933788143e-05  6.7029106753695820e-05  6.7029106655439104e-05  6.7029106602615947e-05  6.7029106574621576e-05  6.7029106560032104e-05  6.7029106552661440e-05  6.7029106549293909e-05  1.3405914268121454e-04  1.3405914356568808e-04  6.7029107044677319e-05  6.7029107330783229e-05  6.7029107907582038e-05  6.7029108980203102e-05  6.7029110916322389e-05  6.7029114355872887e-05  6.7029120387194623e-05  6.7029130801622922e-05  6.7029148378405182e-05  6.7029176982938895e-05  6.7029220992198280e-05  6.7029283442147721e-05  6.7029362989724702e-05  6.7029451734398042e-05  6.7029536066556621e-05  6.7029599906388507e-05  6.7029629522869351e-05  6.7029619102295672e-05  6.7029573798506835e-05  6.7029506767022387e-05  6.7029432356180844e-05  6.7029361418774640e-05  6.7029300193239270e-05  6.7029251130679482e-05  6.7029214064633679e-05  6.7029187277106025e-05  6.7029168414789762e-05  6.7029155169573179e-05  6.7029145659004198e-05  6.7029138539584181e-05  6.7029132950456144e-05  6.7029128387340186e-05  6.7029124573901621e-05  6.7029121361486641e-05  6.7029118663351766e-05  6.7029116417625633e-05  6.7029114570114041e-05  6.7029113069108016e-05  6.7029111866484444e-05  6.7029110921170752e-05  6.7029110202271785e-05  6.7029109690179165e-05  6.7029109375114974e-05  6.7029109253748990e-05  6.7029109325358524e-05  6.7029109589126888e-05  6.7029110043697541e-05  6.7029110689500153e-05  6.7029111533983043e-05  6.7029112599448061e-05  6.7029113932208189e-05  6.7029115610544411e-05  6.7029117748422217e-05  6.7029120492702538e-05  6.7029124013220359e-05  6.7029128486761647e-05  6.7029134077456113e-05  6.7029140918416284e-05  6.7029149104333547e-05  6.7029158713683158e-05  6.7029169891603157e-05  6.7029183035089497e-05  6.7029199117352514e-05  6.7029220143706024e-05  6.7029249617884208e-05  6.7029292707683136e-05  6.7029355607326014e-05  6.7029443634537917e-05  6.7029558186758830e-05  6.7029693431719920e-05  6.7029833461417312e-05  6.7029952356026598e-05  6.7030023016740640e-05  6.7030030754750621e-05  6.7029977690141016e-05  6.7029878121085393e-05  6.7029752111845932e-05  6.7029619793635805e-05  6.7029496565652283e-05  6.7029391121472474e-05  6.7029306517447395e-05  6.7029242161745407e-05  6.7029195473779834e-05  6.7029163042977771e-05  6.7029141399141702e-05  6.7029127473365168e-05  6.7029118805597763e-05  6.7029113568966200e-05  6.7029110488474094e-05  6.7029108718935464e-05  6.7029107723780835e-05  6.7029107174618665e-05  6.7029106876661273e-05  6.7029106717442945e-05  6.7029106633535794e-05  6.7029106589904476e-05  6.7029106567567174e-05  6.7029106556461447e-05  6.7029106551454303e-05  1.3405914268437773e-04  1.3405914429124151e-04  6.7029107454148889e-05  6.7029107987333266e-05  6.7029109069291262e-05  6.7029111098182559e-05  6.7029114796683577e-05  6.7029121446849672e-05  6.7029133296468357e-05  6.7029154222741807e-05  6.7029190647107691e-05  6.7029252260049748e-05  6.7029351191516431e-05  6.7029497358278204e-05  6.7029689232333110e-05  6.7029906899317631e-05  6.7030115024730572e-05  6.7030271449215848e-05  6.7030339505586608e-05  6.7030304245636470e-05  6.7030182277112973e-05  6.7030011693520095e-05  6.7029830129981626e-05  6.7029662952768255e-05  6.7029522838727863e-05  6.7029413556282127e-05  6.7029333175663841e-05  6.7029276562999456e-05  6.7029237539203447e-05  6.7029210455026749e-05  6.7029190972983844e-05  6.7029176180745026e-05  6.7029164331326444e-05  6.7029154473686173e-05  6.7029146125801127e-05  6.7029139043536109e-05  6.7029133081988651e-05  6.7029128125024829e-05  6.7029124057716992e-05  6.7029120762706812e-05  6.7029118128082807e-05  6.7029116058653923e-05  6.7029114484874527e-05  6.7029113365653465e-05  6.7029112683970836e-05  6.7029112437337135e-05  6.7029112627290752e-05  6.7029113252212985e-05  6.7029114306061481e-05  6.7029115783911306e-05  6.7029117694667609e-05  6.7029120080733536e-05  6.7029123041780349e-05  6.7029126755910711e-05  6.7029131489877415e-05  6.7029137592418062e-05  6.7029145469424048e-05  6.7029155543515552e-05  6.7029168202832506e-05  6.7029183747364409e-05  6.7029202351309521e-05  6.7029224082111249e-05  6.7029249052330555e-05  6.7029277820277429e-05  6.7029312168771720e-05  6.7029356313203875e-05  6.7029418320851915e-05  6.7029510985343365e-05  6.7029650713961160e-05  6.7029852835635254e-05  6.7030123567341784e-05  6.7030451448336776e-05  6.7030798106403150e-05  6.7031093523994256e-05  6.7031262183611494e-05  6.7031268147608829e-05  6.7031123439998893e-05  6.7030869110616280e-05  6.7030557742752631e-05  6.7030240121951321e-05  6.7029952555835938e-05  6.7029712704007015e-05  6.7029524585040972e-05  6.7029384522303468e-05  6.7029285084466476e-05  6.7029217551896201e-05  6.7029173528844029e-05  6.7029145879841503e-05  6.7029129084432174e-05  6.7029119179868284e-05  6.7029113489922455e-05  6.7029110295851972e-05  6.7029108539078155e-05  6.7029107590139554e-05  6.7029107085728168e-05  6.7029106821428274e-05  6.7029106684732539e-05  6.7029106614908211e-05  6.7029106579753877e-05  6.7029106562535039e-05  6.7029106554861178e-05  1.3405914268941311e-04  1.3405914561595922e-04  6.7029108205807946e-05  6.7029109200357020e-05  6.7029111231029349e-05  6.7029115065780781e-05  6.7029122107786201e-05  6.7029134871539431e-05  6.7029157859644178e-05  6.7029199177330416e-05  6.7029273225318291e-05  6.7029403845821582e-05  6.7029624426231816e-05  6.7029966921603208e-05  6.7030432975844604e-05  6.7030971204285031e-05  6.7031489367448923e-05  6.7031876777844354e-05  6.7032033777744346e-05  6.7031920257639951e-05  6.7031589699147168e-05  6.7031154347406711e-05  6.7030712078976459e-05  6.7030319609060260e-05  6.7030000245499300e-05  6.7029757889707750e-05  6.7029584587387041e-05  6.7029465830352426e-05  6.7029385691845322e-05  6.7029330530478921e-05  6.7029290519469021e-05  6.7029259497976951e-05  6.7029234046650995e-05  6.7029212466515300e-05  6.7029193980316847e-05  6.7029178220717845e-05  6.7029164952289700e-05  6.7029153947473379e-05  6.7029144950514778e-05  6.7029137686399132e-05  6.7029131889602333e-05  6.7029127336689124e-05  6.7029123870400412e-05  6.7029121406247236e-05  6.7029119919238776e-05  6.7029119416923017e-05  6.7029119910777337e-05  6.7029121397501384e-05  6.7029123855920635e-05  6.7029127260189838e-05  6.7029131610268377e-05  6.7029136981152466e-05  6.7029143584992350e-05  6.7029151827815130e-05  6.7029162337471019e-05  6.7029175947329675e-05  6.7029193634174339e-05  6.7029216417954993e-05  6.7029245232665702e-05  6.7029280780044450e-05  6.7029323396745796e-05  6.7029373017765166e-05  6.7029429414320479e-05  6.7029493012704403e-05  6.7029566700730801e-05  6.7029658938696357e-05  6.7029787908870036e-05  6.7029984988757616e-05  6.7030293483788379e-05  6.7030757011925273e-05  6.7031397895372875e-05  6.7032196892361184e-05  6.7033065086915587e-05  6.7033809601722407e-05  6.7034212653766648e-05  6.7034189900896029e-05  6.7033794700463862e-05  6.7033143264131278e-05  6.7032371709022453e-05  6.7031608682791211e-05  6.7030938996158444e-05  6.7030395142038556e-05  6.7029978133394442e-05  6.7029674229093249e-05  6.7029463229122322e-05  6.7029323300935541e-05  6.7029234336592745e-05  6.7029179871418783e-05  6.7029147619215596e-05  6.7029129068503360e-05  6.7029118665753179e-05  6.7029112959754748e-05  6.7029109889919848e-05  6.7029108266168706e-05  6.7029107420096172e-05  6.7029106985084567e-05  6.7029106764099838e-05  6.7029106653120361e-05  6.7029106598123786e-05  6.7029106571563204e-05  6.7029106559849958e-05  1.3405914269678631e-04  1.3405914800511127e-04  6.7029109567534866e-05  6.7029111412823979e-05  6.7029115204484012e-05  6.7029122413636314e-05  6.7029135732088097e-05  6.7029159975034926e-05  6.7029203799454944e-05  6.7029283271888569e-05  6.7029429156917195e-05  6.7029698247312452e-05  6.7030181286289759e-05  6.7030980968586513e-05  6.7032118492309597e-05  6.7033456263222374e-05  6.7034753595500315e-05  6.7035722131416971e-05  6.7036085747163940e-05  6.7035729972274058e-05  6.7034828078256351e-05  6.7033717767889009e-05  6.7032647876048577e-05  6.7031734783299786e-05  6.7031012898218127e-05  6.7030480171464683e-05  6.7030110823405954e-05  6.7029865272219365e-05  6.7029703049459644e-05  6.7029591733907030e-05  6.7029509595843494e-05  6.7029444079049193e-05  6.7029388866607302e-05  6.7029341193872253e-05  6.7029299982326304e-05  6.7029264764190672e-05  6.7029235164519434e-05  6.7029210710595807e-05  6.7029190809154364e-05  6.7029174801430070e-05  6.7029162049738047e-05  6.7029152026127592e-05  6.7029144375650972e-05  6.7029138931078228e-05  6.7029135672945411e-05  6.7029134653334582e-05  6.7029135918276659e-05  6.7029139460344489e-05  6.7029145212652122e-05  6.7029153080120396e-05  6.7029163010602641e-05  6.7029175117219863e-05  6.7029189841837303e-05  6.7029208108293332e-05  6.7029231398129145e-05  6.7029261708791409e-05  6.7029301397427183e-05  6.7029352935926833e-05  6.7029418595897607e-05  6.7029500070987303e-05  6.7029598072476361e-05  6.7029712049587192e-05  6.7029840427871229e-05  6.7029982134524530e-05  6.7030140591730803e-05  6.7030331451919283e-05  6.7030594290019838e-05  6.7031004882708186e-05  6.7031677094771326e-05  6.7032733920669238e-05  6.7034246309868534e-05  6.7036194222293562e-05  6.7038391107049217e-05  6.7040294661806723e-05  6.7041250307946527e-05  6.7041081650026025e-05  6.7040004139829967e-05  6.7038337265034305e-05  6.7036425295089740e-05  6.7034597528926155e-05  6.7033049128114615e-05  6.7031825936274928e-05  6.7030908439041182e-05  6.7030254072053774e-05  6.7029810422641537e-05  6.7029523779395220e-05  6.7029346463317777e-05  6.7029240875054994e-05  6.7029180028834896e-05  6.7029145937668794e-05  6.7029127291863815e-05  6.7029117303223570e-05  6.7029112047606638e-05  6.7029109325331609e-05  6.7029107934547704e-05  6.7029107232623441e-05  6.7029106882231796e-05  6.7029106709135070e-05  6.7029106624657926e-05  6.7029106584410011e-05  6.7029106566836910e-05  1.3405914270708244e-04  1.3405915227793157e-04  6.7029112012430023e-05  6.7029115411173522e-05  6.7029122444340743e-05  6.7029135924787659e-05  6.7029161001937475e-05  6.7029206762122721e-05  6.7029289127378016e-05  6.7029437562984230e-05  6.7029712843108839e-05  6.7030242967447472e-05  6.7031268076284467e-05  6.7033117771644074e-05  6.7035898303586231e-05  6.7039219515448766e-05  6.7042467121364226e-05  6.7044915874363780e-05  6.7045782632710123e-05  6.7044700730661339e-05  6.7042229528300527e-05  6.7039412689363483e-05  6.7036855178316006e-05  6.7034757161188845e-05  6.7033140779818392e-05  6.7031981630998928e-05  6.7031205995292902e-05  6.7030707833344035e-05  6.7030385322084787e-05  6.7030162831185805e-05  6.7029993867792384e-05  6.7029854186430597e-05  6.7029733140891540e-05  6.7029626958658965e-05  6.7029534609824425e-05  6.7029455702026242e-05  6.7029389619993669e-05  6.7029335308829190e-05  6.7029291345385668e-05  6.7029256128022923e-05  6.7029228112876310e-05  6.7029206046880619e-05  6.7029189132666544e-05  6.7029177060428586e-05  6.7029169888595282e-05  6.7029167827944763e-05  6.7029171031682711e-05  6.7029179479513714e-05  6.7029192972561675e-05  6.7029211206451388e-05  6.7029233929487717e-05  6.7029261243291158e-05  6.7029294037458523e-05  6.7029334407812827e-05  6.7029385859342631e-05  6.7029453191392045e-05  6.7029542099454557e-05  6.7029658583430912e-05  6.7029808203868276e-05  6.7029995153545789e-05  6.7030221132195793e-05  6.7030484250408964e-05  6.7030778766340410e-05  6.7031097473204749e-05  6.7031439937547007e-05  6.7031830886337817e-05  6.7032351850951482e-05  6.7033181624364399e-05  6.7034618760514379e-05  6.7037008824410050e-05  6.7040550893639702e-05  6.7045265183661020e-05  6.7050856439468257e-05  6.7055775464891493e-05  6.7057973426007313e-05  6.7057216846338647e-05  6.7054327077527482e-05  6.7050114743317173e-05  6.7045402066004072e-05  6.7041053885254695e-05  6.7037515877089150e-05  6.7034794004946626e-05  6.7032792419072218e-05  6.7031395853895035e-05  6.7030473577843201e-05  6.7029894953342172e-05  6.7029547802630268e-05  6.7029347253389128e-05  6.7029235004771121e-05  6.7029173822135679e-05  6.7029141210799820e-05  6.7029124155816011e-05  6.7029115380947104e-05  6.7029110929731870e-05  6.7029108699584054e-05  6.7029107594404331e-05  6.7029107052079452e-05  6.7029106788429307e-05  6.7029106661658724e-05  6.7029106602052514e-05  6.7029106576277410e-05  1.3405914272094019e-04  1.3405915986691488e-04  6.7029116368313895e-05  6.7029122572943926e-05  6.7029135513331674e-05  6.7029160580881422e-05  6.7029207742409129e-05  6.7029294326308779e-05  6.7029448740693067e-05  6.7029718915431660e-05  6.7030208497081755e-05  6.7031172316706994e-05  6.7033171460724897e-05  6.7037152889455411e-05  6.7043459063351543e-05  6.7050975361666491e-05  6.7058496348126412e-05  6.7064743294905924e-05  6.7067561084396121e-05  6.7065122573310276e-05  6.7058756985970673e-05  6.7051843027581858e-05  6.70458858857