<?xml version="1.0"?>
<VTKFile type="UnstructuredGrid"  version="0.1"  >
<UnstructuredGrid>
<Piece  NumberOfPoints="5151" NumberOfCells="10000">
<Points>
<DataArray  type="Float64"  NumberOfComponents="3"  format="ascii">0 0 0  0.02 0 0  0.04 0 0  0.06 0 0  0.08 0 0  0.1 0 0  0.12 0 0  0.14 0 0  0.16 0 0  0.18 0 0  0.2 0 0  0.22 0 0  0.24 0 0  0.26 0 0  0.28 0 0  0.3 0 0  0.32 0 0  0.34 0 0  0.36 0 0  0.38 0 0  0.4 0 0  0.42 0 0  0.44 0 0  0.46 0 0  0.48 0 0  0.5 0 0  0.52 0 0  0.54 0 0  0.5600000000000001 0 0  0.58 0 0  0.6 0 0  0.62 0 0  0.64 0 0  0.66 0 0  0.68 0 0  0.7 0 0  0.72 0 0  0.74 0 0  0.76 0 0  0.78 0 0  0.8 0 0  0.82 0 0  0.84 0 0  0.86 0 0  0.88 0 0  0.9 0 0  0.92 0 0  0.9399999999999999 0 0  0.96 0 0  0.98 0 0  1 0 0  1.02 0 0  1.04 0 0  1.06 0 0  1.08 0 0  1.1 0 0  1.12 0 0  1.14 0 0  1.16 0 0  1.18 0 0  1.2 0 0  1.22 0 0  1.24 0 0  1.26 0 0  1.28 0 0  1.3 0 0  1.32 0 0  1.34 0 0  1.36 0 0  1.38 0 0  1.4 0 0  1.42 0 0  1.44 0 0  1.46 0 0  1.48 0 0  1.5 0 0  1.52 0 0  1.54 0 0  1.56 0 0  1.58 0 0  1.6 0 0  1.62 0 0  1.64 0 0  1.66 0 0  1.68 0 0  1.7 0 0  1.72 0 0  1.74 0 0  1.76 0 0  1.78 0 0  1.8 0 0  1.82 0 0  1.84 0 0  1.86 0 0  1.88 0 0  1.9 0 0  1.92 0 0  1.94 0 0  1.96 0 0  1.98 0 0  2 0 0  0 0.02 0  0.02 0.02 0  0.04 0.02 0  0.06 0.02 0  0.08 0.02 0  0.1 0.02 0  0.12 0.02 0  0.14 0.02 0  0.16 0.02 0  0.18 0.02 0  0.2 0.02 0  0.22 0.02 0  0.24 0.02 0  0.26 0.02 0  0.28 0.02 0  0.3 0.02 0  0.32 0.02 0  0.34 0.02 0  0.36 0.02 0  0.38 0.02 0  0.4 0.02 0  0.42 0.02 0  0.44 0.02 0  0.46 0.02 0  0.48 0.02 0  0.5 0.02 0  0.52 0.02 0  0.54 0.02 0  0.5600000000000001 0.02 0  0.58 0.02 0  0.6 0.02 0  0.62 0.02 0  0.64 0.02 0  0.66 0.02 0  0.68 0.02 0  0.7 0.02 0  0.72 0.02 0  0.74 0.02 0  0.76 0.02 0  0.78 0.02 0  0.8 0.02 0  0.82 0.02 0  0.84 0.02 0  0.86 0.02 0  0.88 0.02 0  0.9 0.02 0  0.92 0.02 0  0.9399999999999999 0.02 0  0.96 0.02 0  0.98 0.02 0  1 0.02 0  1.02 0.02 0  1.04 0.02 0  1.06 0.02 0  1.08 0.02 0  1.1 0.02 0  1.12 0.02 0  1.14 0.02 0  1.16 0.02 0  1.18 0.02 0  1.2 0.02 0  1.22 0.02 0  1.24 0.02 0  1.26 0.02 0  1.28 0.02 0  1.3 0.02 0  1.32 0.02 0  1.34 0.02 0  1.36 0.02 0  1.38 0.02 0  1.4 0.02 0  1.42 0.02 0  1.44 0.02 0  1.46 0.02 0  1.48 0.02 0  1.5 0.02 0  1.52 0.02 0  1.54 0.02 0  1.56 0.02 0  1.58 0.02 0  1.6 0.02 0  1.62 0.02 0  1.64 0.02 0  1.66 0.02 0  1.68 0.02 0  1.7 0.02 0  1.72 0.02 0  1.74 0.02 0  1.76 0.02 0  1.78 0.02 0  1.8 0.02 0  1.82 0.02 0  1.84 0.02 0  1.86 0.02 0  1.88 0.02 0  1.9 0.02 0  1.92 0.02 0  1.94 0.02 0  1.96 0.02 0  1.98 0.02 0  2 0.02 0  0 0.04 0  0.02 0.04 0  0.04 0.04 0  0.06 0.04 0  0.08 0.04 0  0.1 0.04 0  0.12 0.04 0  0.14 0.04 0  0.16 0.04 0  0.18 0.04 0  0.2 0.04 0  0.22 0.04 0  0.24 0.04 0  0.26 0.04 0  0.28 0.04 0  0.3 0.04 0  0.32 0.04 0  0.34 0.04 0  0.36 0.04 0  0.38 0.04 0  0.4 0.04 0  0.42 0.04 0  0.44 0.04 0  0.46 0.04 0  0.48 0.04 0  0.5 0.04 0  0.52 0.04 0  0.54 0.04 0  0.5600000000000001 0.04 0  0.58 0.04 0  0.6 0.04 0  0.62 0.04 0  0.64 0.04 0  0.66 0.04 0  0.68 0.04 0  0.7 0.04 0  0.72 0.04 0  0.74 0.04 0  0.76 0.04 0  0.78 0.04 0  0.8 0.04 0  0.82 0.04 0  0.84 0.04 0  0.86 0.04 0  0.88 0.04 0  0.9 0.04 0  0.92 0.04 0  0.9399999999999999 0.04 0  0.96 0.04 0  0.98 0.04 0  1 0.04 0  1.02 0.04 0  1.04 0.04 0  1.06 0.04 0  1.08 0.04 0  1.1 0.04 0  1.12 0.04 0  1.14 0.04 0  1.16 0.04 0  1.18 0.04 0  1.2 0.04 0  1.22 0.04 0  1.24 0.04 0  1.26 0.04 0  1.28 0.04 0  1.3 0.04 0  1.32 0.04 0  1.34 0.04 0  1.36 0.04 0  1.38 0.04 0  1.4 0.04 0  1.42 0.04 0  1.44 0.04 0  1.46 0.04 0  1.48 0.04 0  1.5 0.04 0  1.52 0.04 0  1.54 0.04 0  1.56 0.04 0  1.58 0.04 0  1.6 0.04 0  1.62 0.04 0  1.64 0.04 0  1.66 0.04 0  1.68 0.04 0  1.7 0.04 0  1.72 0.04 0  1.74 0.04 0  1.76 0.04 0  1.78 0.04 0  1.8 0.04 0  1.82 0.04 0  1.84 0.04 0  1.86 0.04 0  1.88 0.04 0  1.9 0.04 0  1.92 0.04 0  1.94 0.04 0  1.96 0.04 0  1.98 0.04 0  2 0.04 0  0 0.06 0  0.02 0.06 0  0.04 0.06 0  0.06 0.06 0  0.08 0.06 0  0.1 0.06 0  0.12 0.06 0  0.14 0.06 0  0.16 0.06 0  0.18 0.06 0  0.2 0.06 0  0.22 0.06 0  0.24 0.06 0  0.26 0.06 0  0.28 0.06 0  0.3 0.06 0  0.32 0.06 0  0.34 0.06 0  0.36 0.06 0  0.38 0.06 0  0.4 0.06 0  0.42 0.06 0  0.44 0.06 0  0.46 0.06 0  0.48 0.06 0  0.5 0.06 0  0.52 0.06 0  0.54 0.06 0  0.5600000000000001 0.06 0  0.58 0.06 0  0.6 0.06 0  0.62 0.06 0  0.64 0.06 0  0.66 0.06 0  0.68 0.06 0  0.7 0.06 0  0.72 0.06 0  0.74 0.06 0  0.76 0.06 0  0.78 0.06 0  0.8 0.06 0  0.82 0.06 0  0.84 0.06 0  0.86 0.06 0  0.88 0.06 0  0.9 0.06 0  0.92 0.06 0  0.9399999999999999 0.06 0  0.96 0.06 0  0.98 0.06 0  1 0.06 0  1.02 0.06 0  1.04 0.06 0  1.06 0.06 0  1.08 0.06 0  1.1 0.06 0  1.12 0.06 0  1.14 0.06 0  1.16 0.06 0  1.18 0.06 0  1.2 0.06 0  1.22 0.06 0  1.24 0.06 0  1.26 0.06 0  1.28 0.06 0  1.3 0.06 0  1.32 0.06 0  1.34 0.06 0  1.36 0.06 0  1.38 0.06 0  1.4 0.06 0  1.42 0.06 0  1.44 0.06 0  1.46 0.06 0  1.48 0.06 0  1.5 0.06 0  1.52 0.06 0  1.54 0.06 0  1.56 0.06 0  1.58 0.06 0  1.6 0.06 0  1.62 0.06 0  1.64 0.06 0  1.66 0.06 0  1.68 0.06 0  1.7 0.06 0  1.72 0.06 0  1.74 0.06 0  1.76 0.06 0  1.78 0.06 0  1.8 0.06 0  1.82 0.06 0  1.84 0.06 0  1.86 0.06 0  1.88 0.06 0  1.9 0.06 0  1.92 0.06 0  1.94 0.06 0  1.96 0.06 0  1.98 0.06 0  2 0.06 0  0 0.08 0  0.02 0.08 0  0.04 0.08 0  0.06 0.08 0  0.08 0.08 0  0.1 0.08 0  0.12 0.08 0  0.14 0.08 0  0.16 0.08 0  0.18 0.08 0  0.2 0.08 0  0.22 0.08 0  0.24 0.08 0  0.26 0.08 0  0.28 0.08 0  0.3 0.08 0  0.32 0.08 0  0.34 0.08 0  0.36 0.08 0  0.38 0.08 0  0.4 0.08 0  0.42 0.08 0  0.44 0.08 0  0.46 0.08 0  0.48 0.08 0  0.5 0.08 0  0.52 0.08 0  0.54 0.08 0  0.5600000000000001 0.08 0  0.58 0.08 0  0.6 0.08 0  0.62 0.08 0  0.64 0.08 0  0.66 0.08 0  0.68 0.08 0  0.7 0.08 0  0.72 0.08 0  0.74 0.08 0  0.76 0.08 0  0.78 0.08 0  0.8 0.08 0  0.82 0.08 0  0.84 0.08 0  0.86 0.08 0  0.88 0.08 0  0.9 0.08 0  0.92 0.08 0  0.9399999999999999 0.08 0  0.96 0.08 0  0.98 0.08 0  1 0.08 0  1.02 0.08 0  1.04 0.08 0  1.06 0.08 0  1.08 0.08 0  1.1 0.08 0  1.12 0.08 0  1.14 0.08 0  1.16 0.08 0  1.18 0.08 0  1.2 0.08 0  1.22 0.08 0  1.24 0.08 0  1.26 0.08 0  1.28 0.08 0  1.3 0.08 0  1.32 0.08 0  1.34 0.08 0  1.36 0.08 0  1.38 0.08 0  1.4 0.08 0  1.42 0.08 0  1.44 0.08 0  1.46 0.08 0  1.48 0.08 0  1.5 0.08 0  1.52 0.08 0  1.54 0.08 0  1.56 0.08 0  1.58 0.08 0  1.6 0.08 0  1.62 0.08 0  1.64 0.08 0  1.66 0.08 0  1.68 0.08 0  1.7 0.08 0  1.72 0.08 0  1.74 0.08 0  1.76 0.08 0  1.78 0.08 0  1.8 0.08 0  1.82 0.08 0  1.84 0.08 0  1.86 0.08 0  1.88 0.08 0  1.9 0.08 0  1.92 0.08 0  1.94 0.08 0  1.96 0.08 0  1.98 0.08 0  2 0.08 0  0 0.1 0  0.02 0.1 0  0.04 0.1 0  0.06 0.1 0  0.08 0.1 0  0.1 0.1 0  0.12 0.1 0  0.14 0.1 0  0.16 0.1 0  0.18 0.1 0  0.2 0.1 0  0.22 0.1 0  0.24 0.1 0  0.26 0.1 0  0.28 0.1 0  0.3 0.1 0  0.32 0.1 0  0.34 0.1 0  0.36 0.1 0  0.38 0.1 0  0.4 0.1 0  0.42 0.1 0  0.44 0.1 0  0.46 0.1 0  0.48 0.1 0  0.5 0.1 0  0.52 0.1 0  0.54 0.1 0  0.5600000000000001 0.1 0  0.58 0.1 0  0.6 0.1 0  0.62 0.1 0  0.64 0.1 0  0.66 0.1 0  0.68 0.1 0  0.7 0.1 0  0.72 0.1 0  0.74 0.1 0  0.76 0.1 0  0.78 0.1 0  0.8 0.1 0  0.82 0.1 0  0.84 0.1 0  0.86 0.1 0  0.88 0.1 0  0.9 0.1 0  0.92 0.1 0  0.9399999999999999 0.1 0  0.96 0.1 0  0.98 0.1 0  1 0.1 0  1.02 0.1 0  1.04 0.1 0  1.06 0.1 0  1.08 0.1 0  1.1 0.1 0  1.12 0.1 0  1.14 0.1 0  1.16 0.1 0  1.18 0.1 0  1.2 0.1 0  1.22 0.1 0  1.24 0.1 0  1.26 0.1 0  1.28 0.1 0  1.3 0.1 0  1.32 0.1 0  1.34 0.1 0  1.36 0.1 0  1.38 0.1 0  1.4 0.1 0  1.42 0.1 0  1.44 0.1 0  1.46 0.1 0  1.48 0.1 0  1.5 0.1 0  1.52 0.1 0  1.54 0.1 0  1.56 0.1 0  1.58 0.1 0  1.6 0.1 0  1.62 0.1 0  1.64 0.1 0  1.66 0.1 0  1.68 0.1 0  1.7 0.1 0  1.72 0.1 0  1.74 0.1 0  1.76 0.1 0  1.78 0.1 0  1.8 0.1 0  1.82 0.1 0  1.84 0.1 0  1.86 0.1 0  1.88 0.1 0  1.9 0.1 0  1.92 0.1 0  1.94 0.1 0  1.96 0.1 0  1.98 0.1 0  2 0.1 0  0 0.12 0  0.02 0.12 0  0.04 0.12 0  0.06 0.12 0  0.08 0.12 0  0.1 0.12 0  0.12 0.12 0  0.14 0.12 0  0.16 0.12 0  0.18 0.12 0  0.2 0.12 0  0.22 0.12 0  0.24 0.12 0  0.26 0.12 0  0.28 0.12 0  0.3 0.12 0  0.32 0.12 0  0.34 0.12 0  0.36 0.12 0  0.38 0.12 0  0.4 0.12 0  0.42 0.12 0  0.44 0.12 0  0.46 0.12 0  0.48 0.12 0  0.5 0.12 0  0.52 0.12 0  0.54 0.12 0  0.5600000000000001 0.12 0  0.58 0.12 0  0.6 0.12 0  0.62 0.12 0  0.64 0.12 0  0.66 0.12 0  0.68 0.12 0  0.7 0.12 0  0.72 0.12 0  0.74 0.12 0  0.76 0.12 0  0.78 0.12 0  0.8 0.12 0  0.82 0.12 0  0.84 0.12 0  0.86 0.12 0  0.88 0.12 0  0.9 0.12 0  0.92 0.12 0  0.9399999999999999 0.12 0  0.96 0.12 0  0.98 0.12 0  1 0.12 0  1.02 0.12 0  1.04 0.12 0  1.06 0.12 0  1.08 0.12 0  1.1 0.12 0  1.12 0.12 0  1.14 0.12 0  1.16 0.12 0  1.18 0.12 0  1.2 0.12 0  1.22 0.12 0  1.24 0.12 0  1.26 0.12 0  1.28 0.12 0  1.3 0.12 0  1.32 0.12 0  1.34 0.12 0  1.36 0.12 0  1.38 0.12 0  1.4 0.12 0  1.42 0.12 0  1.44 0.12 0  1.46 0.12 0  1.48 0.12 0  1.5 0.12 0  1.52 0.12 0  1.54 0.12 0  1.56 0.12 0  1.58 0.12 0  1.6 0.12 0  1.62 0.12 0  1.64 0.12 0  1.66 0.12 0  1.68 0.12 0  1.7 0.12 0  1.72 0.12 0  1.74 0.12 0  1.76 0.12 0  1.78 0.12 0  1.8 0.12 0  1.82 0.12 0  1.84 0.12 0  1.86 0.12 0  1.88 0.12 0  1.9 0.12 0  1.92 0.12 0  1.94 0.12 0  1.96 0.12 0  1.98 0.12 0  2 0.12 0  0 0.14 0  0.02 0.14 0  0.04 0.14 0  0.06 0.14 0  0.08 0.14 0  0.1 0.14 0  0.12 0.14 0  0.14 0.14 0  0.16 0.14 0  0.18 0.14 0  0.2 0.14 0  0.22 0.14 0  0.24 0.14 0  0.26 0.14 0  0.28 0.14 0  0.3 0.14 0  0.32 0.14 0  0.34 0.14 0  0.36 0.14 0  0.38 0.14 0  0.4 0.14 0  0.42 0.14 0  0.44 0.14 0  0.46 0.14 0  0.48 0.14 0  0.5 0.14 0  0.52 0.14 0  0.54 0.14 0  0.5600000000000001 0.14 0  0.58 0.14 0  0.6 0.14 0  0.62 0.14 0  0.64 0.14 0  0.66 0.14 0  0.68 0.14 0  0.7 0.14 0  0.72 0.14 0  0.74 0.14 0  0.76 0.14 0  0.78 0.14 0  0.8 0.14 0  0.82 0.14 0  0.84 0.14 0  0.86 0.14 0  0.88 0.14 0  0.9 0.14 0  0.92 0.14 0  0.9399999999999999 0.14 0  0.96 0.14 0  0.98 0.14 0  1 0.14 0  1.02 0.14 0  1.04 0.14 0  1.06 0.14 0  1.08 0.14 0  1.1 0.14 0  1.12 0.14 0  1.14 0.14 0  1.16 0.14 0  1.18 0.14 0  1.2 0.14 0  1.22 0.14 0  1.24 0.14 0  1.26 0.14 0  1.28 0.14 0  1.3 0.14 0  1.32 0.14 0  1.34 0.14 0  1.36 0.14 0  1.38 0.14 0  1.4 0.14 0  1.42 0.14 0  1.44 0.14 0  1.46 0.14 0  1.48 0.14 0  1
[...]
<PointData  Scalars="sols[i]"> 
<DataArray  type="Float64"  Name="sols[i]"  format="ascii">4.1212920219925531e-03  2.7488015290407907e-03  2.7488015290423394e-03  2.7488015290447480e-03  2.7488015290482028e-03  2.7488015290529056e-03  2.7488015290590907e-03  2.7488015290670327e-03  2.7488015290770200e-03  2.7488015290893591e-03  2.7488015291043930e-03  2.7488015291224897e-03  2.7488015291441035e-03  2.7488015291698073e-03  2.7488015292003380e-03  2.7488015292365837e-03  2.7488015292796123e-03  2.7488015293305685e-03  2.7488015293905248e-03  2.7488015294603479e-03  2.7488015295404687e-03  2.7488015296306622e-03  2.7488015297299387e-03  2.7488015298364273e-03  2.7488015298496918e-03  2.7488015299617376e-03  2.7488015300710000e-03  2.7488015301734940e-03  2.7488015302654829e-03  2.7488015303437645e-03  2.7488015304060107e-03  2.7488015304508798e-03  2.7488015304780694e-03  2.7488015304882574e-03  2.7488015304829587e-03  2.7488015304642523e-03  2.7488015304346115e-03  2.7488015303966142e-03  2.7488015303527356e-03  2.7488015303051955e-03  2.7488015302558600e-03  2.7488015302061463e-03  2.7488015301570944e-03  2.7488015301093448e-03  2.7488015300631981e-03  2.7488015300186990e-03  2.7488015299757152e-03  2.7488015299339556e-03  2.7488015298931141e-03  2.7488015298528629e-03  2.7488015298128905e-03  2.7488015297729464e-03  2.7488015297328456e-03  2.7488015296924812e-03  2.7488015296518150e-03  2.7488015296108820e-03  2.7488015295697951e-03  2.7488015295286492e-03  2.7488015294876516e-03  2.7488015294470235e-03  2.7488015294069761e-03  2.7488015293677414e-03  2.7488015293295484e-03  2.7488015293903236e-03  2.7488015293548598e-03  2.7488015293210496e-03  2.7488015292890539e-03  2.7488015292590063e-03  2.7488015292310326e-03  2.7488015292051584e-03  2.7488015291814542e-03  2.7488015291599441e-03  2.7488015291405993e-03  2.7488015291233744e-03  2.7488015291081960e-03  2.7488015290949683e-03  2.7488015290835720e-03  2.7488015290738775e-03  2.7488015290657339e-03  2.7488015290589854e-03  2.7488015290534724e-03  2.7488015290490541e-03  2.7488015290455269e-03  2.7488015290427713e-03  2.7488015290406636e-03  2.7488015290390677e-03  2.7488015290378777e-03  2.7488015290370003e-03  2.7488015290363576e-03  2.7488015290358827e-03  2.7488015290355263e-03  2.7488015290352474e-03  2.7488015290350210e-03  2.7488015290348458e-03  2.7488015290346637e-03  2.7488015290345045e-03  2.7488015290343805e-03  2.7488015290342833e-03  2.7488015290342144e-03  2.7488015290341784e-03  8.2091617434989772e-03  2.7488015290426937e-03  1.3710548225069506e-03  1.3710548225078876e-03  1.3710548225093953e-03  1.3710548225115886e-03  1.3710548225145944e-03  1.3710548225185472e-03  1.3710548225235933e-03  1.3710548225298763e-03  1.3710548225375372e-03  1.3710548225467250e-03  1.3710548225576084e-03  1.3710548225704003e-03  1.3710548225854017e-03  1.3710548226030300e-03  1.3710548226238287e-03  1.3710548226484715e-03  1.3710548226777211e-03  1.3710548227123258e-03  1.3710548227529164e-03  1.3710548227998641e-03  1.3710548228531218e-03  1.3710548229121252e-03  1.3710548229757264e-03  1.3710548230421954e-03  1.3710548231093214e-03  1.3710548231745839e-03  1.3710548232353618e-03  1.3710548232891912e-03  1.3710548233339768e-03  1.3710548233681976e-03  1.3710548233910179e-03  1.3710548234023032e-03  1.3710548234025883e-03  1.3710548233929691e-03  1.3710548233749321e-03  1.3710548233502055e-03  1.3710548233205916e-03  1.3710548232878017e-03  1.3710548232533637e-03  1.3710548232185472e-03  1.3710548231843154e-03  1.3710548231513477e-03  1.3710548231200530e-03  1.3710548230906009e-03  1.3710548230629813e-03  1.3710548230370543e-03  1.3710548230125848e-03  1.3710548229893043e-03  1.3710548229669420e-03  1.3710548229452352e-03  1.3710548229239595e-03  1.3710548229029364e-03  1.3710548228820371e-03  1.3710548228611846e-03  1.3710548228403467e-03  1.3710548228195397e-03  1.3710548227987916e-03  1.3710548227781705e-03  1.3710548227577805e-03  1.3710548227377135e-03  1.3710548227180773e-03  1.3710548226989801e-03  1.3710548226805277e-03  1.3710548226628201e-03  1.3710548226459468e-03  1.3710548226299863e-03  1.3710548226150052e-03  1.3710548226010617e-03  1.3710548225881755e-03  1.3710548225763692e-03  1.3710548225656623e-03  1.3710548225560372e-03  1.3710548225474720e-03  1.3710548225399277e-03  1.3710548225333563e-03  1.3710548225276983e-03  1.3710548225228866e-03  1.3710548225188456e-03  1.3710548225154967e-03  1.3710548225127578e-03  1.3710548225105558e-03  1.3710548225087974e-03  1.3710548225074075e-03  1.3710548225063339e-03  1.3710548225055099e-03  1.3710548225048822e-03  1.3710548225044060e-03  1.3710548225040458e-03  1.3710548225037706e-03  1.3710548225035579e-03  1.3710548225033894e-03  1.3710548225032535e-03  1.3710548225031470e-03  1.3710548225030512e-03  1.3710548225029620e-03  1.3710548225028955e-03  1.3710548225028439e-03  1.3710548225028074e-03  1.3710548225027864e-03  2.7488015290341992e-03  2.7488015290506331e-03  1.3710548225106425e-03  1.3710548225124494e-03  1.3710548225153777e-03  1.3710548225196275e-03  1.3710548225254111e-03  1.3710548225329266e-03  1.3710548225423426e-03  1.3710548225537790e-03  1.3710548225673001e-03  1.3710548225829469e-03  1.3710548226007722e-03  1.3710548226209195e-03  1.3710548226437203e-03  1.3710548226697789e-03  1.3710548227000234e-03  1.3710548227357181e-03  1.3710548227783800e-03  1.3710548228295886e-03  1.3710548228907443e-03  1.3710548229627613e-03  1.3710548230457392e-03  1.3710548231387232e-03  1.3710548232395662e-03  1.3710548233449341e-03  1.3710548234505198e-03  1.3710548235514040e-03  1.3710548236425186e-03  1.3710548237191738e-03  1.3710548237775215e-03  1.3710548238149405e-03  1.3710548238302517e-03  1.3710548238237321e-03  1.3710548237970042e-03  1.3710548237527737e-03  1.3710548236944774e-03  1.3710548236259325e-03  1.3710548235509883e-03  1.3710548234732165e-03  1.3710548233957112e-03  1.3710548233209613e-03  1.3710548232507829e-03  1.3710548231863587e-03  1.3710548231283001e-03  1.3710548230767251e-03  1.3710548230313822e-03  1.3710548229917601e-03  1.3710548229571747e-03  1.3710548229268712e-03  1.3710548229000964e-03  1.3710548228761279e-03  1.3710548228543246e-03  1.3710548228341398e-03  1.3710548228151329e-03  1.3710548227969619e-03  1.3710548227793811e-03  1.3710548227622316e-03  1.3710548227454024e-03  1.3710548227288493e-03  1.3710548227125886e-03  1.3710548226966404e-03  1.3710548226810548e-03  1.3710548226658929e-03  1.3710548226512236e-03  1.3710548226371147e-03  1.3710548226236326e-03  1.3710548226108369e-03  1.3710548225987799e-03  1.3710548225875120e-03  1.3710548225770510e-03  1.3710548225674183e-03  1.3710548225586397e-03  1.3710548225507077e-03  1.3710548225436096e-03  1.3710548225373232e-03  1.3710548225318153e-03  1.3710548225270415e-03  1.3710548225229504e-03  1.3710548225194818e-03  1.3710548225165696e-03  1.3710548225141451e-03  1.3710548225121465e-03  1.3710548225104927e-03  1.3710548225091218e-03  1.3710548225079951e-03  1.3710548225070586e-03  1.3710548225062777e-03  1.3710548225056216e-03  1.3710548225050702e-03  1.3710548225046063e-03  1.3710548225042188e-03  1.3710548225038966e-03  1.3710548225036310e-03  1.3710548225034237e-03  1.3710548225032513e-03  1.3710548225031088e-03  1.3710548225030060e-03  1.3710548225029315e-03  1.3710548225028820e-03  1.3710548225028558e-03  2.7488015290343310e-03  2.7488015290686547e-03  1.3710548225192042e-03  1.3710548225231100e-03  1.3710548225294322e-03  1.3710548225385852e-03  1.3710548225509924e-03  1.3710548225670265e-03  1.3710548225869519e-03  1.3710548226108757e-03  1.3710548226387358e-03  1.3710548226703581e-03  1.3710548227055673e-03  1.3710548227443766e-03  1.3710548227872405e-03  1.3710548228352845e-03  1.3710548228904676e-03  1.3710548229556136e-03  1.3710548230342413e-03  1.3710548231301322e-03  1.3710548232467399e-03  1.3710548233864400e-03  1.3710548235497568e-03  1.3710548237347543e-03  1.3710548239366941e-03  1.3710548241480660e-03  1.3710548243590834e-03  1.3710548245585551e-03  1.3710548247350166e-03  1.3710548248779685e-03  1.3710548249789845e-03  1.3710548250325748e-03  1.3710548250366471e-03  1.3710548249925131e-03  1.3710548249045525e-03  1.3710548247795546e-03  1.3710548246258735e-03  1.3710548244525765e-03  1.3710548242686328e-03  1.3710548240822326e-03  1.3710548239003371e-03  1.3710548237284143e-03  1.3710548235703435e-03  1.3710548234285066e-03  1.3710548233039660e-03  1.3710548231966821e-03  1.3710548231057908e-03  1.3710548230298637e-03  1.3710548229671185e-03  1.3710548229156371e-03  1.3710548228735139e-03  1.3710548228389487e-03  1.3710548228103331e-03  1.3710548227862831e-03  1.3710548227656538e-03  1.3710548227475305e-03  1.3710548227312070e-03  1.3710548227161682e-03  1.3710548227020265e-03  1.3710548226885310e-03  1.3710548226755399e-03  1.3710548226629569e-03  1.3710548226507451e-03  1.3710548226388997e-03  1.3710548226274395e-03  1.3710548226163962e-03  1.3710548226058094e-03  1.3710548225957186e-03  1.3710548225861633e-03  1.3710548225771872e-03  1.3710548225688080e-03  1.3710548225610490e-03  1.3710548225539456e-03  1.3710548225474989e-03  1.3710548225417112e-03  1.3710548225365736e-03  1.3710548225320655e-03  1.3710548225281561e-03  1.3710548225247998e-03  1.3710548225219410e-03  1.3710548225195167e-03  1.3710548225174556e-03  1.3710548225156947e-03  1.3710548225141536e-03  1.3710548225127736e-03  1.3710548225115268e-03  1.3710548225103741e-03  1.3710548225092998e-03  1.3710548225082991e-03  1.3710548225073754e-03  1.3710548225065360e-03  1.3710548225057892e-03  1.3710548225051406e-03  1.3710548225045920e-03  1.3710548225041486e-03  1.3710548225037880e-03  1.3710548225035011e-03  1.3710548225032927e-03  1.3710548225031455e-03  1.3710548225030525e-03  1.3710548225030084e-03  2.7488015290346272e-03  2.7488015291076552e-03  1.3710548225378553e-03  1.3710548225464943e-03  1.3710548225604868e-03  1.3710548225807626e-03  1.3710548226082621e-03  1.3710548226437949e-03  1.3710548226878909e-03  1.3710548227406708e-03  1.3710548228017981e-03  1.3710548228705890e-03  1.3710548229462927e-03  1.3710548230285715e-03  1.3710548231181216e-03  1.3710548232172943e-03  1.3710548233305427e-03  1.3710548234645388e-03  1.3710548236277695e-03  1.3710548238295452e-03  1.3710548240785118e-03  1.3710548243808056e-03  1.3710548247381508e-03  1.3710548251463191e-03  1.3710548255942711e-03  1.3710548260642548e-03  1.3710548265330183e-03  1.3710548269739715e-03  1.3710548273599930e-03  1.3710548276664478e-03  1.3710548278738849e-03  1.3710548279700463e-03  1.3710548279508802e-03  1.3710548278204877e-03  1.3710548275901663e-03  1.3710548272767402e-03  1.3710548269005006e-03  1.3710548264831105e-03  1.3710548260456922e-03  1.3710548256072798e-03  1.3710548251837991e-03  1.3710548247875111e-03  1.3710548244268963e-03  1.3710548241069023e-03  1.3710548238294112e-03  1.3710548235938188e-03  1.3710548233976760e-03  1.3710548232373004e-03  1.3710548231082923e-03  1.3710548230059965e-03  1.3710548229258425e-03  1.3710548228635633e-03  1.3710548228153645e-03  1.3710548227779964e-03  1.3710548227487656e-03  1.3710548227255156e-03  1.3710548227065680e-03  1.3710548226906656e-03  1.3710548226768659e-03  1.3710548226645112e-03  1.3710548226531680e-03  1.3710548226425316e-03  1.3710548226324188e-03  1.3710548226227237e-03  1.3710548226133947e-03  1.3710548226044145e-03  1.3710548225957908e-03  1.3710548225875443e-03  1.3710548225797032e-03  1.3710548225723093e-03  1.3710548225653822e-03  1.3710548225589565e-03  1.3710548225530799e-03  1.3710548225477706e-03  1.3710548225430467e-03  1.3710548225389135e-03  1.3710548225353612e-03  1.3710548225323591e-03  1.3710548225298548e-03  1.3710548225277744e-03  1.3710548225260260e-03  1.3710548225245073e-03  1.3710548225231230e-03  1.3710548225217647e-03  1.3710548225203613e-03  1.3710548225188829e-03  1.3710548225173104e-03  1.3710548225156600e-03  1.3710548225139706e-03  1.3710548225122948e-03  1.3710548225106876e-03  1.3710548225092001e-03  1.3710548225078696e-03  1.3710548225067203e-03  1.3710548225057682e-03  1.3710548225049936e-03  1.3710548225043826e-03  1.3710548225039304e-03  1.3710548225036117e-03  1.3710548225034109e-03  1.3710548225033172e-03  2.7488015290352292e-03  2.7488015291909141e-03  1.3710548225778448e-03  1.3710548225970129e-03  1.3710548226281856e-03  1.3710548226735252e-03  1.3710548227352363e-03  1.3710548228152259e-03  1.3710548229147097e-03  1.3710548230338646e-03  1.3710548231716650e-03  1.3710548233260976e-03  1.3710548234948294e-03  1.3710548236764031e-03  1.3710548238718024e-03  1.3710548240860707e-03  1.3710548243295239e-03  1.3710548246181195e-03  1.3710548249725363e-03  1.3710548254157956e-03  1.3710548259695718e-03  1.3710548266496132e-03  1.3710548274610116e-03  1.3710548283943221e-03  1.3710548294234080e-03  1.3710548305057170e-03  1.3710548315470834e-03  1.3710548325600010e-03  1.3710548334795376e-03  1.3710548341707561e-03  1.3710548346263507e-03  1.3710548348185164e-03  1.3710548347394031e-03  1.3710548344007375e-03  1.3710548338312205e-03  1.3710548330722948e-03  1.3710548322112852e-03  1.3710548312234430e-03  1.3710548301967070e-03  1.3710548291753020e-03  1.3710548281956596e-03  1.3710548272852984e-03  1.3710548264245148e-03  1.3710548256999646e-03  1.3710548250765869e-03  1.3710548245519144e-03  1.3710548241193919e-03  1.3710548237697987e-03  1.3710548234924722e-03  1.3710548232763234e-03  1.3710548231105992e-03  1.3710548229853817e-03  1.3710548228919230e-03  1.3710548228227839e-03  1.3710548227718468e-03  1.3710548227342347e-03  1.3710548227061706e-03  1.3710548226848150e-03  1.3710548226680693e-03  1.3710548226544416e-03  1.3710548226429130e-03  1.3710548226327764e-03  1.3710548226235728e-03  1.3710548226150139e-03  1.3710548226069270e-03  1.3710548225992190e-03  1.3710548225918501e-03  1.3710548225848147e-03  1.3710548225781339e-03  1.3710548225718501e-03  1.3710548225659984e-03  1.3710548225606344e-03  1.3710548225558334e-03  1.3710548225516447e-03  1.3710548225481143e-03  1.3710548225452685e-03  1.3710548225431040e-03  1.3710548225415742e-03  1.3710548225405890e-03  1.3710548225400077e-03  1.3710548225396521e-03  1.3710548225393171e-03  1.3710548225388073e-03  1.3710548225379304e-03  1.3710548225365619e-03  1.3710548225346595e-03  1.3710548225322353e-03  1.3710548225293754e-03  1.3710548225262164e-03  1.3710548225229220e-03  1.3710548225196561e-03  1.3710548225165646e-03  1.3710548225137587e-03  1.3710548225113108e-03  1.3710548225092586e-03  1.3710548225075879e-03  1.3710548225062727e-03  1.3710548225052909e-03  1.3710548225045951e-03  1.3710548225041518e-03  1.3710548225039374e-03  2.7488015290364314e-03  2.7488015293675632e-03  1.3710548226630382e-03  1.3710548227055684e-03  1.3710548227751692e-03  1.3710548228769806e-03  1.3710548230163161e-03  1.3710548231978209e-03  1.3710548234244660e-03  1.3710548236965945e-03  1.3710548240114086e-03  1.3710548243633463e-03  1.3710548247456793e-03  1.3710548251534603e-03  1.3710548255874973e-03  1.3710548260585371e-03  1.3710548265905272e-03  1.3710548272217265e-03  1.3710548280026302e-03  1.3710548289902038e-03  1.3710548302387679e-03  1.3710548317503780e-03  1.3710548336158790e-03  1.3710548357758544e-03  1.3710548381680732e-03  1.3710548406900081e-03  1.3710548431682061e-03  1.3710548455629454e-03  1.3710548476035345e-03  1.3710548491887573e-03  1.3710548502117623e-03  1.3710548506476324e-03  1.3710548504053911e-03  1.3710548495557188e-03  1.3710548482093366e-03  1.3710548463916287e-03  1.3710548442594276e-03  1.3710548419358286e-03  1.3710548395377013e-03  1.3710548371675809e-03  1.3710548349085937e-03  1.3710548328222634e-03  1.3710548309487283e-03  1.3710548293087745e-03  1.3710548279069505e-03  1.3710548267351537e-03  1.3710548257762768e-03  1.3710548249693231e-03  1.3710548243650875e-03  1.3710548238991523e-03  1.3710548235464225e-03  1.3710548232840224e-03  1.3710548230919640e-03  1.3710548229534051e-03  1.3710548228546174e-03  1.3710548227847462e-03  1.3710548227354527e-03  1.3710548227005132e-03  1.3710548226753708e-03  1.3710548226568012e-03  1.3710548226425825e-03  1.3710548226311939e-03  1.3710548226216349e-03  1.3710548226132638e-03  1.3710548226056824e-03  1.3710548225986596e-03  1.3710548225920741e-03  1.3710548225858827e-03  1.3710548225800965e-03  1.3710548225747752e-03  1.3710548225699878e-03  1.3710548225658416e-03  1.3710548225624748e-03  1.3710548225600026e-03  1.3710548225585326e-03  1.3710548225581321e-03  1.3710548225588026e-03  1.3710548225604529e-03  1.3710548225628833e-03  1.3710548225657816e-03  1.3710548225687371e-03  1.3710548225712854e-03  1.3710548225729692e-03  1.3710548225733773e-03  1.3710548225722456e-03  1.3710548225694971e-03  1.3710548225652165e-03  1.3710548225596586e-03  1.3710548225531970e-03  1.3710548225462603e-03  1.3710548225392713e-03  1.3710548225325963e-03  1.3710548225265124e-03  1.3710548225211955e-03  1.3710548225167331e-03  1.3710548225131099e-03  1.3710548225102706e-03  1.3710548225081460e-03  1.3710548225066368e-03  1.3710548225056665e-03  1.3710548225051807e-03  2.7488015290388261e-03  2.7488015297405526e-03  1.3710548228437385e-03  1.3710548229380370e-03  1.3710548230935458e-03  1.3710548233226061e-03  1.3710548236381829e-03  1.3710548240517947e-03  1.3710548245709211e-03  1.3710548251964192e-03  1.3710548259209491e-03  1.3710548267295544e-03  1.3710548276034125e-03  1.3710548285271224e-03  1.3710548294987854e-03  1.3710548305408481e-03  1.3710548317087655e-03  1.3710548330942991e-03  1.3710548347826079e-03  1.3710548369911338e-03  1.3710548397795428e-03  1.3710548433270239e-03  1.3710548475970444e-03  1.3710548526184878e-03  1.3710548581663282e-03  1.3710548640692628e-03  1.3710548699613584e-03  1.3710548754691061e-03  1.3710548802550310e-03  1.3710548839100493e-03  1.3710548862597640e-03  1.3710548871231491e-03  1.3710548864757301e-03  1.3710548843676427e-03  1.3710548810579547e-03  1.3710548767582292e-03  1.3710548717164007e-03  1.3710548663016843e-03  1.3710548607118785e-03  1.3710548552223606e-03  1.3710548499839773e-03  1.3710548452100276e-03  1.3710548409485441e-03  1.3710548372407462e-03  1.3710548340525226e-03  1.3710548314360745e-03  1.3710548293092706e-03  1.3710548276162609e-03  1.3710548262957380e-03  1.3710548252860479e-03  1.3710548244906709e-03  1.3710548239334809e-03  1.3710548235308033e-03  1.3710548232447042e-03  1.3710548230445570e-03  1.3710548229063859e-03  1.3710548228119516e-03  1.3710548227477591e-03  1.3710548227040542e-03  1.3710548226739806e-03  1.3710548226528391e-03  1.3710548226374519e-03  1.3710548226257343e-03  1.3710548226163485e-03  1.3710548226084623e-03  1.3710548226015802e-03  1.3710548225954382e-03  1.3710548225899268e-03  1.3710548225850550e-03  1.3710548225809268e-03  1.3710548225776989e-03  1.3710548225755995e-03  1.3710548225749129e-03  1.3710548225759132e-03  1.3710548225788508e-03  1.3710548225838908e-03  1.3710548225910472e-03  1.3710548226001176e-03  1.3710548226106376e-03  1.3710548226218643e-03  1.3710548226328202e-03  1.3710548226423852e-03  1.3710548226494562e-03  1.3710548226530809e-03  1.3710548226526522e-03  1.3710548226480116e-03  1.3710548226394358e-03  1.3710548226276043e-03  1.3710548226134758e-03  1.3710548225981251e-03  1.3710548225825906e-03  1.3710548225677546e-03  1.3710548225542708e-03  1.3710548225425404e-03  1.3710548225327388e-03  1.3710548225248356e-03  1.3710548225186873e-03  1.3710548225141029e-03  1.3710548225108531e-03  1.3710548225087525e-03  1.3710548225076748e-03  2.7488015290435966e-03  2.7488015305242005e-03  1.3710548232253414e-03  1.3710548234341748e-03  1.3710548237814864e-03  1.3710548242970393e-03  1.3710548250126706e-03  1.3710548259572150e-03  1.3710548271498250e-03  1.3710548285930473e-03  1.3710548302680848e-03  1.3710548321353613e-03  1.3710548341432024e-03  1.3710548362458625e-03  1.3710548384291367e-03  1.3710548407384444e-03  1.3710548432635315e-03  1.3710548463008738e-03  1.3710548500756238e-03  1.3710548549751753e-03  1.3710548613404959e-03  1.3710548694334682e-03  1.37105487936