<?xml version="1.0"?>
<VTKFile type="UnstructuredGrid"  version="0.1"  >
<UnstructuredGrid>
<Piece  NumberOfPoints="5151" NumberOfCells="10000">
<Points>
<DataArray  type="Float64"  NumberOfComponents="3"  format="ascii">0 0 0  0.02 0 0  0.04 0 0  0.06 0 0  0.08 0 0  0.1 0 0  0.12 0 0  0.14 0 0  0.16 0 0  0.18 0 0  0.2 0 0  0.22 0 0  0.24 0 0  0.26 0 0  0.28 0 0  0.3 0 0  0.32 0 0  0.34 0 0  0.36 0 0  0.38 0 0  0.4 0 0  0.42 0 0  0.44 0 0  0.46 0 0  0.48 0 0  0.5 0 0  0.52 0 0  0.54 0 0  0.5600000000000001 0 0  0.58 0 0  0.6 0 0  0.62 0 0  0.64 0 0  0.66 0 0  0.68 0 0  0.7 0 0  0.72 0 0  0.74 0 0  0.76 0 0  0.78 0 0  0.8 0 0  0.82 0 0  0.84 0 0  0.86 0 0  0.88 0 0  0.9 0 0  0.92 0 0  0.9399999999999999 0 0  0.96 0 0  0.98 0 0  1 0 0  1.02 0 0  1.04 0 0  1.06 0 0  1.08 0 0  1.1 0 0  1.12 0 0  1.14 0 0  1.16 0 0  1.18 0 0  1.2 0 0  1.22 0 0  1.24 0 0  1.26 0 0  1.28 0 0  1.3 0 0  1.32 0 0  1.34 0 0  1.36 0 0  1.38 0 0  1.4 0 0  1.42 0 0  1.44 0 0  1.46 0 0  1.48 0 0  1.5 0 0  1.52 0 0  1.54 0 0  1.56 0 0  1.58 0 0  1.6 0 0  1.62 0 0  1.64 0 0  1.66 0 0  1.68 0 0  1.7 0 0  1.72 0 0  1.74 0 0  1.76 0 0  1.78 0 0  1.8 0 0  1.82 0 0  1.84 0 0  1.86 0 0  1.88 0 0  1.9 0 0  1.92 0 0  1.94 0 0  1.96 0 0  1.98 0 0  2 0 0  0 0.02 0  0.02 0.02 0  0.04 0.02 0  0.06 0.02 0  0.08 0.02 0  0.1 0.02 0  0.12 0.02 0  0.14 0.02 0  0.16 0.02 0  0.18 0.02 0  0.2 0.02 0  0.22 0.02 0  0.24 0.02 0  0.26 0.02 0  0.28 0.02 0  0.3 0.02 0  0.32 0.02 0  0.34 0.02 0  0.36 0.02 0  0.38 0.02 0  0.4 0.02 0  0.42 0.02 0  0.44 0.02 0  0.46 0.02 0  0.48 0.02 0  0.5 0.02 0  0.52 0.02 0  0.54 0.02 0  0.5600000000000001 0.02 0  0.58 0.02 0  0.6 0.02 0  0.62 0.02 0  0.64 0.02 0  0.66 0.02 0  0.68 0.02 0  0.7 0.02 0  0.72 0.02 0  0.74 0.02 0  0.76 0.02 0  0.78 0.02 0  0.8 0.02 0  0.82 0.02 0  0.84 0.02 0  0.86 0.02 0  0.88 0.02 0  0.9 0.02 0  0.92 0.02 0  0.9399999999999999 0.02 0  0.96 0.02 0  0.98 0.02 0  1 0.02 0  1.02 0.02 0  1.04 0.02 0  1.06 0.02 0  1.08 0.02 0  1.1 0.02 0  1.12 0.02 0  1.14 0.02 0  1.16 0.02 0  1.18 0.02 0  1.2 0.02 0  1.22 0.02 0  1.24 0.02 0  1.26 0.02 0  1.28 0.02 0  1.3 0.02 0  1.32 0.02 0  1.34 0.02 0  1.36 0.02 0  1.38 0.02 0  1.4 0.02 0  1.42 0.02 0  1.44 0.02 0  1.46 0.02 0  1.48 0.02 0  1.5 0.02 0  1.52 0.02 0  1.54 0.02 0  1.56 0.02 0  1.58 0.02 0  1.6 0.02 0  1.62 0.02 0  1.64 0.02 0  1.66 0.02 0  1.68 0.02 0  1.7 0.02 0  1.72 0.02 0  1.74 0.02 0  1.76 0.02 0  1.78 0.02 0  1.8 0.02 0  1.82 0.02 0  1.84 0.02 0  1.86 0.02 0  1.88 0.02 0  1.9 0.02 0  1.92 0.02 0  1.94 0.02 0  1.96 0.02 0  1.98 0.02 0  2 0.02 0  0 0.04 0  0.02 0.04 0  0.04 0.04 0  0.06 0.04 0  0.08 0.04 0  0.1 0.04 0  0.12 0.04 0  0.14 0.04 0  0.16 0.04 0  0.18 0.04 0  0.2 0.04 0  0.22 0.04 0  0.24 0.04 0  0.26 0.04 0  0.28 0.04 0  0.3 0.04 0  0.32 0.04 0  0.34 0.04 0  0.36 0.04 0  0.38 0.04 0  0.4 0.04 0  0.42 0.04 0  0.44 0.04 0  0.46 0.04 0  0.48 0.04 0  0.5 0.04 0  0.52 0.04 0  0.54 0.04 0  0.5600000000000001 0.04 0  0.58 0.04 0  0.6 0.04 0  0.62 0.04 0  0.64 0.04 0  0.66 0.04 0  0.68 0.04 0  0.7 0.04 0  0.72 0.04 0  0.74 0.04 0  0.76 0.04 0  0.78 0.04 0  0.8 0.04 0  0.82 0.04 0  0.84 0.04 0  0.86 0.04 0  0.88 0.04 0  0.9 0.04 0  0.92 0.04 0  0.9399999999999999 0.04 0  0.96 0.04 0  0.98 0.04 0  1 0.04 0  1.02 0.04 0  1.04 0.04 0  1.06 0.04 0  1.08 0.04 0  1.1 0.04 0  1.12 0.04 0  1.14 0.04 0  1.16 0.04 0  1.18 0.04 0  1.2 0.04 0  1.22 0.04 0  1.24 0.04 0  1.26 0.04 0  1.28 0.04 0  1.3 0.04 0  1.32 0.04 0  1.34 0.04 0  1.36 0.04 0  1.38 0.04 0  1.4 0.04 0  1.42 0.04 0  1.44 0.04 0  1.46 0.04 0  1.48 0.04 0  1.5 0.04 0  1.52 0.04 0  1.54 0.04 0  1.56 0.04 0  1.58 0.04 0  1.6 0.04 0  1.62 0.04 0  1.64 0.04 0  1.66 0.04 0  1.68 0.04 0  1.7 0.04 0  1.72 0.04 0  1.74 0.04 0  1.76 0.04 0  1.78 0.04 0  1.8 0.04 0  1.82 0.04 0  1.84 0.04 0  1.86 0.04 0  1.88 0.04 0  1.9 0.04 0  1.92 0.04 0  1.94 0.04 0  1.96 0.04 0  1.98 0.04 0  2 0.04 0  0 0.06 0  0.02 0.06 0  0.04 0.06 0  0.06 0.06 0  0.08 0.06 0  0.1 0.06 0  0.12 0.06 0  0.14 0.06 0  0.16 0.06 0  0.18 0.06 0  0.2 0.06 0  0.22 0.06 0  0.24 0.06 0  0.26 0.06 0  0.28 0.06 0  0.3 0.06 0  0.32 0.06 0  0.34 0.06 0  0.36 0.06 0  0.38 0.06 0  0.4 0.06 0  0.42 0.06 0  0.44 0.06 0  0.46 0.06 0  0.48 0.06 0  0.5 0.06 0  0.52 0.06 0  0.54 0.06 0  0.5600000000000001 0.06 0  0.58 0.06 0  0.6 0.06 0  0.62 0.06 0  0.64 0.06 0  0.66 0.06 0  0.68 0.06 0  0.7 0.06 0  0.72 0.06 0  0.74 0.06 0  0.76 0.06 0  0.78 0.06 0  0.8 0.06 0  0.82 0.06 0  0.84 0.06 0  0.86 0.06 0  0.88 0.06 0  0.9 0.06 0  0.92 0.06 0  0.9399999999999999 0.06 0  0.96 0.06 0  0.98 0.06 0  1 0.06 0  1.02 0.06 0  1.04 0.06 0  1.06 0.06 0  1.08 0.06 0  1.1 0.06 0  1.12 0.06 0  1.14 0.06 0  1.16 0.06 0  1.18 0.06 0  1.2 0.06 0  1.22 0.06 0  1.24 0.06 0  1.26 0.06 0  1.28 0.06 0  1.3 0.06 0  1.32 0.06 0  1.34 0.06 0  1.36 0.06 0  1.38 0.06 0  1.4 0.06 0  1.42 0.06 0  1.44 0.06 0  1.46 0.06 0  1.48 0.06 0  1.5 0.06 0  1.52 0.06 0  1.54 0.06 0  1.56 0.06 0  1.58 0.06 0  1.6 0.06 0  1.62 0.06 0  1.64 0.06 0  1.66 0.06 0  1.68 0.06 0  1.7 0.06 0  1.72 0.06 0  1.74 0.06 0  1.76 0.06 0  1.78 0.06 0  1.8 0.06 0  1.82 0.06 0  1.84 0.06 0  1.86 0.06 0  1.88 0.06 0  1.9 0.06 0  1.92 0.06 0  1.94 0.06 0  1.96 0.06 0  1.98 0.06 0  2 0.06 0  0 0.08 0  0.02 0.08 0  0.04 0.08 0  0.06 0.08 0  0.08 0.08 0  0.1 0.08 0  0.12 0.08 0  0.14 0.08 0  0.16 0.08 0  0.18 0.08 0  0.2 0.08 0  0.22 0.08 0  0.24 0.08 0  0.26 0.08 0  0.28 0.08 0  0.3 0.08 0  0.32 0.08 0  0.34 0.08 0  0.36 0.08 0  0.38 0.08 0  0.4 0.08 0  0.42 0.08 0  0.44 0.08 0  0.46 0.08 0  0.48 0.08 0  0.5 0.08 0  0.52 0.08 0  0.54 0.08 0  0.5600000000000001 0.08 0  0.58 0.08 0  0.6 0.08 0  0.62 0.08 0  0.64 0.08 0  0.66 0.08 0  0.68 0.08 0  0.7 0.08 0  0.72 0.08 0  0.74 0.08 0  0.76 0.08 0  0.78 0.08 0  0.8 0.08 0  0.82 0.08 0  0.84 0.08 0  0.86 0.08 0  0.88 0.08 0  0.9 0.08 0  0.92 0.08 0  0.9399999999999999 0.08 0  0.96 0.08 0  0.98 0.08 0  1 0.08 0  1.02 0.08 0  1.04 0.08 0  1.06 0.08 0  1.08 0.08 0  1.1 0.08 0  1.12 0.08 0  1.14 0.08 0  1.16 0.08 0  1.18 0.08 0  1.2 0.08 0  1.22 0.08 0  1.24 0.08 0  1.26 0.08 0  1.28 0.08 0  1.3 0.08 0  1.32 0.08 0  1.34 0.08 0  1.36 0.08 0  1.38 0.08 0  1.4 0.08 0  1.42 0.08 0  1.44 0.08 0  1.46 0.08 0  1.48 0.08 0  1.5 0.08 0  1.52 0.08 0  1.54 0.08 0  1.56 0.08 0  1.58 0.08 0  1.6 0.08 0  1.62 0.08 0  1.64 0.08 0  1.66 0.08 0  1.68 0.08 0  1.7 0.08 0  1.72 0.08 0  1.74 0.08 0  1.76 0.08 0  1.78 0.08 0  1.8 0.08 0  1.82 0.08 0  1.84 0.08 0  1.86 0.08 0  1.88 0.08 0  1.9 0.08 0  1.92 0.08 0  1.94 0.08 0  1.96 0.08 0  1.98 0.08 0  2 0.08 0  0 0.1 0  0.02 0.1 0  0.04 0.1 0  0.06 0.1 0  0.08 0.1 0  0.1 0.1 0  0.12 0.1 0  0.14 0.1 0  0.16 0.1 0  0.18 0.1 0  0.2 0.1 0  0.22 0.1 0  0.24 0.1 0  0.26 0.1 0  0.28 0.1 0  0.3 0.1 0  0.32 0.1 0  0.34 0.1 0  0.36 0.1 0  0.38 0.1 0  0.4 0.1 0  0.42 0.1 0  0.44 0.1 0  0.46 0.1 0  0.48 0.1 0  0.5 0.1 0  0.52 0.1 0  0.54 0.1 0  0.5600000000000001 0.1 0  0.58 0.1 0  0.6 0.1 0  0.62 0.1 0  0.64 0.1 0  0.66 0.1 0  0.68 0.1 0  0.7 0.1 0  0.72 0.1 0  0.74 0.1 0  0.76 0.1 0  0.78 0.1 0  0.8 0.1 0  0.82 0.1 0  0.84 0.1 0  0.86 0.1 0  0.88 0.1 0  0.9 0.1 0  0.92 0.1 0  0.9399999999999999 0.1 0  0.96 0.1 0  0.98 0.1 0  1 0.1 0  1.02 0.1 0  1.04 0.1 0  1.06 0.1 0  1.08 0.1 0  1.1 0.1 0  1.12 0.1 0  1.14 0.1 0  1.16 0.1 0  1.18 0.1 0  1.2 0.1 0  1.22 0.1 0  1.24 0.1 0  1.26 0.1 0  1.28 0.1 0  1.3 0.1 0  1.32 0.1 0  1.34 0.1 0  1.36 0.1 0  1.38 0.1 0  1.4 0.1 0  1.42 0.1 0  1.44 0.1 0  1.46 0.1 0  1.48 0.1 0  1.5 0.1 0  1.52 0.1 0  1.54 0.1 0  1.56 0.1 0  1.58 0.1 0  1.6 0.1 0  1.62 0.1 0  1.64 0.1 0  1.66 0.1 0  1.68 0.1 0  1.7 0.1 0  1.72 0.1 0  1.74 0.1 0  1.76 0.1 0  1.78 0.1 0  1.8 0.1 0  1.82 0.1 0  1.84 0.1 0  1.86 0.1 0  1.88 0.1 0  1.9 0.1 0  1.92 0.1 0  1.94 0.1 0  1.96 0.1 0  1.98 0.1 0  2 0.1 0  0 0.12 0  0.02 0.12 0  0.04 0.12 0  0.06 0.12 0  0.08 0.12 0  0.1 0.12 0  0.12 0.12 0  0.14 0.12 0  0.16 0.12 0  0.18 0.12 0  0.2 0.12 0  0.22 0.12 0  0.24 0.12 0  0.26 0.12 0  0.28 0.12 0  0.3 0.12 0  0.32 0.12 0  0.34 0.12 0  0.36 0.12 0  0.38 0.12 0  0.4 0.12 0  0.42 0.12 0  0.44 0.12 0  0.46 0.12 0  0.48 0.12 0  0.5 0.12 0  0.52 0.12 0  0.54 0.12 0  0.5600000000000001 0.12 0  0.58 0.12 0  0.6 0.12 0  0.62 0.12 0  0.64 0.12 0  0.66 0.12 0  0.68 0.12 0  0.7 0.12 0  0.72 0.12 0  0.74 0.12 0  0.76 0.12 0  0.78 0.12 0  0.8 0.12 0  0.82 0.12 0  0.84 0.12 0  0.86 0.12 0  0.88 0.12 0  0.9 0.12 0  0.92 0.12 0  0.9399999999999999 0.12 0  0.96 0.12 0  0.98 0.12 0  1 0.12 0  1.02 0.12 0  1.04 0.12 0  1.06 0.12 0  1.08 0.12 0  1.1 0.12 0  1.12 0.12 0  1.14 0.12 0  1.16 0.12 0  1.18 0.12 0  1.2 0.12 0  1.22 0.12 0  1.24 0.12 0  1.26 0.12 0  1.28 0.12 0  1.3 0.12 0  1.32 0.12 0  1.34 0.12 0  1.36 0.12 0  1.38 0.12 0  1.4 0.12 0  1.42 0.12 0  1.44 0.12 0  1.46 0.12 0  1.48 0.12 0  1.5 0.12 0  1.52 0.12 0  1.54 0.12 0  1.56 0.12 0  1.58 0.12 0  1.6 0.12 0  1.62 0.12 0  1.64 0.12 0  1.66 0.12 0  1.68 0.12 0  1.7 0.12 0  1.72 0.12 0  1.74 0.12 0  1.76 0.12 0  1.78 0.12 0  1.8 0.12 0  1.82 0.12 0  1.84 0.12 0  1.86 0.12 0  1.88 0.12 0  1.9 0.12 0  1.92 0.12 0  1.94 0.12 0  1.96 0.12 0  1.98 0.12 0  2 0.12 0  0 0.14 0  0.02 0.14 0  0.04 0.14 0  0.06 0.14 0  0.08 0.14 0  0.1 0.14 0  0.12 0.14 0  0.14 0.14 0  0.16 0.14 0  0.18 0.14 0  0.2 0.14 0  0.22 0.14 0  0.24 0.14 0  0.26 0.14 0  0.28 0.14 0  0.3 0.14 0  0.32 0.14 0  0.34 0.14 0  0.36 0.14 0  0.38 0.14 0  0.4 0.14 0  0.42 0.14 0  0.44 0.14 0  0.46 0.14 0  0.48 0.14 0  0.5 0.14 0  0.52 0.14 0  0.54 0.14 0  0.5600000000000001 0.14 0  0.58 0.14 0  0.6 0.14 0  0.62 0.14 0  0.64 0.14 0  0.66 0.14 0  0.68 0.14 0  0.7 0.14 0  0.72 0.14 0  0.74 0.14 0  0.76 0.14 0  0.78 0.14 0  0.8 0.14 0  0.82 0.14 0  0.84 0.14 0  0.86 0.14 0  0.88 0.14 0  0.9 0.14 0  0.92 0.14 0  0.9399999999999999 0.14 0  0.96 0.14 0  0.98 0.14 0  1 0.14 0  1.02 0.14 0  1.04 0.14 0  1.06 0.14 0  1.08 0.14 0  1.1 0.14 0  1.12 0.14 0  1.14 0.14 0  1.16 0.14 0  1.18 0.14 0  1.2 0.14 0  1.22 0.14 0  1.24 0.14 0  1.26 0.14 0  1.28 0.14 0  1.3 0.14 0  1.32 0.14 0  1.34 0.14 0  1.36 0.14 0  1.38 0.14 0  1.4 0.14 0  1.42 0.14 0  1.44 0.14 0  1.46 0.14 0  1.48 0.14 0  1
[...]
<PointData  Scalars="sols[i]"> 
<DataArray  type="Float64"  Name="sols[i]"  format="ascii">2.7438523673672011e-01  2.0689106176747818e-01  2.0689108119516461e-01  2.0689111674235147e-01  2.0689117517038733e-01  2.0689126548413439e-01  2.0689139860493802e-01  2.0689158663314491e-01  2.0689184203530953e-01  2.0689217698723966e-01  2.0689260299382922e-01  2.0689313079092214e-01  2.0689377046917301e-01  2.0689453169322952e-01  2.0689542383712622e-01  2.0689645582311872e-01  2.0689763543686629e-01  2.0689896789628834e-01  2.0690045352458103e-01  2.0690208449687744e-01  2.0690384086068139e-01  2.0690568601879814e-01  2.0690756174017610e-01  2.0690938722179406e-01  2.0691105830466913e-01  2.0691245020839735e-01  2.0691342682263375e-01  2.0691385448141977e-01  2.0691362030147603e-01  2.0691265370131903e-01  2.0691094868266699e-01  2.0690858381200333e-01  2.0690573665267672e-01  2.0690268978693652e-01  2.0689982652812780e-01  2.0689761601995360e-01  2.0689659093168125e-01  2.0689732661301105e-01  2.0690039769280708e-01  2.0690631740549947e-01  2.0691553489330053e-01  2.0692840707478252e-01  2.0694517042570959e-01  2.0696592298303013e-01  2.0699061738542807e-01  2.0701906509773504e-01  2.0705095138705082e-01  2.0708585991074238e-01  2.0712330284030078e-01  2.0716274902236254e-01  2.0720364112764272e-01  2.0724539881476198e-01  2.0728741474230136e-01  2.0732906476487495e-01  2.0736975593718857e-01  2.0740901038249979e-01  2.0744653385830289e-01  2.0748218584070988e-01  2.0751588281440944e-01  2.0754757027917931e-01  2.0757735500863164e-01  2.0760573572041860e-01  2.0763370722062985e-01  2.0766284847151523e-01  2.0769552286509868e-01  2.0773467396237297e-01  2.0778327072356578e-01  2.0784438241284353e-01  2.0792190149652304e-01  2.0802064734428519e-01  2.0814612328810922e-01  2.0830569050842870e-01  2.0851068883428195e-01  2.0877521452706077e-01  2.0910870943023918e-01  2.0950311484078854e-01  2.0991807715371016e-01  2.1027116393396747e-01  2.1044912350840458e-01  2.1035795335764076e-01  2.0999161713479497e-01  2.0945176832959411e-01  2.0888810368152327e-01  2.0841106814260715e-01  2.0805461251484980e-01  2.0780023757129637e-01  2.0761401320617714e-01  2.0746779837828755e-01  2.0734495352497539e-01  2.0723853430940098e-01  2.0714724919902722e-01  2.0707177918619493e-01  2.0701248817115481e-01  2.0696853805222404e-01  2.0693793689875215e-01  2.0691800354184528e-01  2.0690590216478788e-01  2.0689907722221410e-01  2.0689553328399354e-01  2.0689395610177216e-01  3.7755745530166152e-01  2.0689106155701503e-01  1.4103859006972222e-01  1.4103860070465524e-01  1.4103862009513385e-01  1.4103865096190193e-01  1.4103869678090158e-01  1.4103876181135294e-01  1.4103885097288882e-01  1.4103896962986839e-01  1.4103912337104157e-01  1.4103931783511359e-01  1.4103955859426456e-01  1.4103985107972605e-01  1.4104020050889465e-01  1.4104061175648583e-01  1.4104108909845084e-01  1.4104163575332357e-01  1.4104225315713209e-01  1.4104293993448871e-01  1.4104369057677191e-01  1.4104449390247842e-01  1.4104533144090778e-01  1.4104617588282578e-01  1.4104699036554369e-01  1.4104772857350284e-01  1.4104833541312664e-01  1.4104874980630933e-01  1.4104890877117221e-01  1.4104875277843087e-01  1.4104823205949910e-01  1.4104731327378009e-01  1.4104598579314429e-01  1.4104426678939530e-01  1.4104220433812770e-01  1.4103987789919376e-01  1.4103739583594158e-01  1.4103489032192221e-01  1.4103251197654348e-01  1.4103042264731483e-01  1.4102876671826994e-01  1.4102766637258690e-01  1.4102721437567678e-01  1.4102745501294961e-01  1.4102836789614748e-01  1.4102985342670568e-01  1.4103171908214043e-01  1.4103366506809117e-01  1.4103526744223494e-01  1.4103595510161049e-01  1.4103497519420732e-01  1.4103134136177045e-01  1.4102376399984379e-01  1.4101056855988917e-01  1.4098961480328306e-01  1.4095823006068589e-01  1.4091315593059128e-01  1.4085048228962907e-01  1.4076553620632626e-01  1.4065276854644290e-01  1.4050574745599873e-01  1.4031732819578513e-01  1.4007996866555281e-01  1.3978613962589426e-01  1.3942889323334640e-01  1.3900253654228781e-01  1.3850320580942152e-01  1.3792943432594165e-01  1.3728264338079602e-01  1.3656654288489589e-01  1.3578495190892756e-01  1.3494011933268035e-01  1.3403345715049800e-01  1.3306793865001892e-01  1.3205004195912373e-01  1.3099447559056732e-01  1.2993998084271169e-01  1.2897633236711303e-01  1.2826275546086710e-01  1.2800815698784698e-01  1.2840573056972032e-01  1.2955919913392092e-01  1.3140876767910781e-01  1.3366178184454103e-01  1.3588157863895883e-01  1.3772403191007310e-01  1.3905985256034548e-01  1.3993225126603515e-01  1.4045747254370070e-01  1.4075352013461481e-01  1.4091091199382400e-01  1.4098966156663448e-01  1.4102612930106323e-01  1.4104102764752463e-01  1.4104561163934420e-01  1.4104573626157396e-01  1.4104429561951343e-01  1.4104261603365090e-01  1.4104122605263097e-01  1.4104027382356998e-01  1.4103975194982354e-01  2.0689376128227469e-01  2.0689108027670500e-01  1.4103860034157625e-01  1.4103861583940122e-01  1.4103864259255591e-01  1.4103868257152755e-01  1.4103873790146595e-01  1.4103881087475706e-01  1.4103890402212979e-01  1.4103902010966077e-01  1.4103916206815884e-01  1.4103933289433507e-01  1.4103953554871174e-01  1.4103977285064487e-01  1.4104004734813483e-01  1.4104036112328622e-01  1.4104071548877881e-01  1.4104111053617710e-01  1.4104154451558248e-01  1.4104201305916386e-01  1.4104250830278453e-01  1.4104301800378938e-01  1.4104352479842369e-01  1.4104400578654847e-01  1.4104443275779777e-01  1.4104477321582501e-01  1.4104499187756894e-01  1.4104505340070689e-01  1.4104492566266033e-01  1.4104458338836665e-01  1.4104401181315676e-01  1.4104320996369157e-01  1.4104219313809180e-01  1.4104099419191143e-01  1.4103966330634077e-01  1.4103826604466974e-01  1.4103687970243597e-01  1.4103558834229143e-01  1.4103447772256994e-01  1.4103363025814042e-01  1.4103310751219120e-01  1.4103293257748195e-01  1.4103308818319110e-01  1.4103349522084069e-01  1.4103399223171759e-01  1.4103431189692628e-01  1.4103405454203949e-01  1.4103265625779654e-01  1.4102934858056690e-01  1.4102310396536227e-01  1.4101255819020822e-01  1.4099590075871093e-01  1.4097073337559299e-01  1.4093390728557947e-01  1.4088136239685875e-01  1.4080799197292843e-01  1.4070752855512639e-01  1.4057239483845810e-01  1.4039346462071930e-01  1.4015985651408816e-01  1.3985901228051340e-01  1.3947716931741130e-01  1.3900005317338029e-01  1.3841375523196106e-01  1.3770610228380351e-01  1.3686810731027377e-01  1.3589525890561185e-01  1.3478969308355734e-01  1.3356254012189450e-01  1.3223203493707836e-01  1.3081683775980771e-01  1.2933378137991605e-01  1.2780459575680164e-01  1.2626447273246735e-01  1.2476233058066354e-01  1.2336318110345623e-01  1.2216832361101336e-01  1.2131867417550177e-01  1.2089590104627616e-01  1.2078907767580875e-01  1.2091335174358578e-01  1.2173494494858138e-01  1.2406103923581895e-01  1.2786510064689544e-01  1.3202069322702983e-01  1.3547435241717112e-01  1.3787009782088305e-01  1.3934332354462689e-01  1.4017737199918370e-01  1.4062249729946141e-01  1.4084953665092334e-01  1.4096074002419448e-01  1.4101271780794253e-01  1.4103532596228013e-01  1.4104383248687138e-01  1.4104588535229604e-01  1.4104525010072491e-01  1.4104374228999592e-01  1.4104220592938299e-01  1.4104100510743417e-01  1.4104027932094543e-01  2.0689445480286872e-01  2.0689111416414521e-01  1.4103861880474661e-01  1.4103864155331294e-01  1.4103867831903819e-01  1.4103872989161556e-01  1.4103879695669935e-01  1.4103887987958827e-01  1.4103897881881697e-01  1.4103909389505692e-01  1.4103922529060525e-01  1.4103937326936292e-01  1.4103953813558792e-01  1.4103972014105412e-01  1.4103991933248972e-01  1.4104013531914400e-01  1.4104036694085723e-01  1.4104061183184277e-01  1.4104086590427090e-01  1.4104112281126288e-01  1.4104137348721818e-01  1.4104160588434306e-01  1.4104180504888630e-01  1.4104195370176756e-01  1.4104203345157659e-01  1.4104202664883650e-01  1.4104191866709234e-01  1.4104170055278006e-01  1.4104137144904710e-01  1.4104094041462398e-01  1.4104042730517855e-01  1.4103986247896558e-01  1.4103928521048900e-01  1.4103874080569370e-01  1.4103827653534151e-01  1.4103793662235584e-01  1.4103775662078658e-01  1.4103775760985121e-01  1.4103794072827142e-01  1.4103828141702418e-01  1.4103871522402023e-01  1.4103911328060853e-01  1.4103927398013436e-01  1.4103889500674130e-01  1.4103753085611248e-01  1.4103454913855656e-01  1.4102907398797976e-01  1.4101991334524472e-01  1.4100546559953020e-01  1.4098359429226731e-01  1.4095145309981649e-01  1.4090524277645178e-01  1.4083990123366671e-01  1.4074874808130941e-01  1.4062313285090056e-01  1.4045214623370417e-01  1.4022238843133147e-01  1.3991765505648057e-01  1.3951842566502598e-01  1.3900150066610334e-01  1.3834049651115676e-01  1.3750750403277573e-01  1.3647526906527563e-01  1.3522029874854019e-01  1.3372834937045619e-01  1.3200010193661910e-01  1.3005751760082823e-01  1.2795758123430501e-01  1.2581035560387741e-01  1.2378250440711717e-01  1.2209109634036806e-01  1.2103005461835570e-01  1.2101475565726089e-01  1.2250855097440028e-01  1.2567066440701949e-01  1.2988597150809886e-01  1.3381789675176212e-01  1.3643162496967784e-01  1.3738463076737767e-01  1.3746284938468672e-01  1.3792611634030522e-01  1.3536032406232862e-01  1.2668695759832668e-01  1.2053637757175902e-01  1.2481334693292540e-01  1.3106757025847915e-01  1.3560280623230503e-01  1.3827298985368933e-01  1.3969457345813591e-01  1.4040868803334738e-01  1.4075466536325829e-01  1.4091815525148096e-01  1.4099363043124258e-01  1.4102725994773707e-01  1.4104115728068331e-01  1.4104585920745707e-01  1.4104641826934755e-01  1.4104529247307337e-01  1.4104369823794952e-01  1.4104224656522943e-01  1.4104126284344698e-01  2.0689595526005153e-01  2.0689116923385709e-01  1.4103864766154078e-01  1.4103867921877089e-01  1.4103872737862552e-01  1.4103879120725910e-01  1.4103886988860453e-01  1.4103896210396472e-01  1.4103906601151445e-01  1.4103917948187156e-01  1.4103930033758344e-01  1.4103942650787055e-01  1.4103955608563001e-01  1.4103968729068031e-01  1.4103981833601709e-01  1.4103994718993487e-01  1.4104007123567122e-01  1.4104018685600511e-01  1.4104028900616447e-01  1.4104037087644278e-01  1.4104042377705578e-01  1.4104043736851521e-01  1.4104040037493501e-01  1.4104030192902764e-01  1.4104013359605108e-01  1.4103989191117886e-01  1.4103958121456039e-01  1.4103921614120893e-01  1.4103882311698929e-01  1.4103844035604116e-01  1.4103811597121135e-01  1.4103790414386119e-01  1.4103785945431999e-01  1.4103802962753423e-01  1.4103844711948332e-01  1.4103912010320624e-01  1.4104002340843005e-01  1.4104108969208479e-01  1.4104220049168276e-01  1.4104317523030749e-01  1.4104375150553961e-01  1.4104355003573296e-01  1.4104204062240708e-01  1.4103849178210248e-01  1.4103188483544143e-01  1.4102081660801563e-01  1.4100337393159917e-01  1.4097696989954472e-01  1.4093813443889872e-01  1.4088223510358913e-01  1.4080308930880084e-01  1.4069242795797099e-01  1.4053921668137345e-01  1.4032888247366218e-01  1.4004256407137411e-01  1.3965656801421017e-01  1.3914206859193301e-01  1.3846470433578187e-01  1.3758387968663183e-01  1.3645292486003494e-01  1.3502275100444414e-01  1.3325085871453124e-01  1.3111455643254707e-01  1.2863538384349607e-01  1.2592938813085486e-01  1.2328551729409945e-01  1.2130062451888829e-01  1.2108579586937607e-01  1.2412349906683562e-01  1.3042240147002931e-01  1.3612289377083353e-01  1.3875474502003513e-01  1.4262205127914801e-01  1.3466714756182979e-01  1.3116506355181096e-01  1.6507629403145019e-01  2.2194602393873941e-01  2.8667071349167778e-01  3.3477288143804695e-01  3.5010303325397679e-01  3.2638830255191775e-01  2.4318875600679080e-01  1.3173814322971011e-01  1.3604613101620389e-01  1.2182365275294084e-01  1.2453491991008799e-01  1.3212782714505766e-01  1.3672308664141286e-01  1.3904072597281361e-01  1.4013600892913960e-01  1.4063904674565655e-01  1.4086751672279485e-01  1.4097087649030543e-01  1.4101724819532324e-01  1.4103738470520419e-01  1.4104527485288018e-01  1.4104743037229017e-01  1.4104699607715676e-01  1.4104556509270810e-01  1.4104399500371989e-01  1.4104280442787664e-01  2.0689866880165705e-01  2.0689125348885237e-01  1.4103868960137739e-01  1.4103873017568075e-01  1.4103878968090822e-01  1.4103886495416770e-01  1.4103895347706233e-01  1.4103905235256897e-01  1.4103915805156994e-01  1.4103926661111083e-01  1.4103937395779614e-01  1.4103947618842422e-01  1.4103956974561790e-01  1.4103965146827618e-01  1.4103971850696342e-01  1.4103976810158134e-01  1.4103979724191842e-01  1.4103980227014792e-01  1.4103977852588537e-01  1.4103972017288430e-01  1.4103962036315604e-01  1.4103947183297033e-01  1.4103926806198011e-01  1.4103900515554588e-01  1.4103868447332507e-01  1.4103831570505948e-01  1.4103792002317961e-01  1.4103753225951626e-01  1.4103720121547825e-01  1.4103698762371972e-01  1.4103695920969406e-01  1.4103718300041296e-01  1.4103771504662083e-01  1.4103858785788384e-01  1.4103979608113656e-01  1.4104128113063058e-01  1.4104291534391769e-01  1.4104448543246101e-01  1.4104567342775620e-01  1.4104603090294590e-01  1.4104493855599654e-01  1.4104154305498950e-01  1.4103467467951103e-01  1.4102272755633125e-01  1.4100348146332919e-01  1.4097388847237763e-01  1.4092978982916665e-01  1.4086555137184084e-01  1.4077360334986322e-01  1.4064383300065797e-01  1.4046274668088593e-01  1.4021231441460719e-01  1.3986852774743219e-01  1.3939981182961247e-01  1.3876564197600263e-01  1.3791607190602342e-01  1.3679271648105962e-01  1.3533073062676140e-01  1.3346275132891045e-01  1.3113173713567058e-01  1.2833152992037947e-01  1.2520634897224323e-01  1.2226304427421200e-01  1.2086058920764255e-01  1.2386289544980111e-01  1.3257457622597982e-01  1.3662800361288202e-01  1.3693236245821558e-01  1.4241473394522650e-01  1.3593066710657611e-01  1.8882172853344242e-01  2.6124575568329006e-01  3.3044276817548074e-01  3.8543866263075771e-01  4.3277962835233302e-01  5.2747972797220355e-01  8.2915551213856331e-01  8.6387462393868775e-01  8.8948829110688477e-01  9.0000237612001621e-01  8.4891094277163792e-01  8.6045875524602977e-01  4.0108906928599497e-01  1.9556924516332275e-01  1.3544662390708795e-01  1.2042498157626247e-01  1.2790059736461021e-01  1.3492465568480647e-01  1.3833763575178867e-01  1.3985727653605595e-01  1.4052141881010793e-01  1.4081356322994970e-01  1.4094442531758988e-01  1.4100410238044944e-01  1.4103134855057695e-01  1.4104326043498724e-01  1.4104770352764195e-01  1.4104850216593159e-01  1.4104764335518127e-01  1.4104624908238206e-01  1.4104503371891941e-01  2.0690325354964853e-01  2.0689137675851027e-01  1.4103874779119344e-01  1.4103879579989453e-01  1.4103886484781272e-01  1.4103894923665097e-01  1.4103904441287757e-01  1.4103914578849117e-01  1.4103924827261199e-01  1.4103934636396417e-01  1.4103943449684511e-01  1.4103950741984234e-01  1.4103956049114758e-01  1.4103958983132159e-01  1.4103959230294680e-01  1.4103956531158501e-01  1.4103950646551314e-01  1.4103941319041202e-01  1.4103928243870323e-01  1.4103911066389413e-01  1.4103889422355001e-01  1.4103863020801646e-01  1.4103831782728196e-01  1.4103796059260199e-01  1.4103756931034458e-01  1.4103716549975759e-01  1.4103678460530844e-01  1.4103647744512732e-01  1.4103630875296227e-01  1.4103635249173477e-01  1.4103668297995683e-01  1.4103736224904087e-01  1.4103842352824941e-01  1.4103985079995146e-01  1.4104155470119226e-01  1.4104334531043622e-01  1.4104490203384507e-01  1.4104573911256507e-01  1.4104516223450103e-01  1.4104220779600285e-01  1.4103555206957819e-01  1.4102337710507712e-01  1.4100318766757095e-01  1.4097153842766902e-01  1.4092364899355656e-01  1.4085293954702557e-01  1.4075039580081714e-01  1.4060377214554159e-01  1.4039661356348049e-01  1.4010699583520669e-01  1.3970581200747756e-01  1.3915444642414468e-01  1.3840205693696550e-01  1.3738311634101816e-01  1.3601673516271898e-01  1.3421171382113919e-01  1.3188372918180566e-01  1.2899408910097374e-01  1.2564649389863392e-01  1.2236582937397007e-01  1.2091748709438292e-01  1.2566789303291692e-01  1.3542183969525629e-01  1.3719310942331781e-01  1.3906702791081957e-01  1.3023066351634066e-01  1.9049754893760412e-01  2.8437693438131900e-01  3.6507744419483396e-01  4.3546634916224392e-01  7.4215258907159887e-01  8.6465333206616313e-01  8.9014968152610519e-01  8.8673810234578143e-01  8.6574538069400764e-01  8.7345287497433621e-01  8.7806279629841044e-01  8.8223437887775180e-01  8.8793454907528235e-01  8.9201569953151094e-01  8.9128464465141599e-01  8.7490962266448713e-01  8.4906122928509120e-01  7.6297321893232628e-01  3.9092016442627703e-01  2.4652828942381433e-01  1.6365473606927075e-01  1.3356888582817944e-01  1.3784739034191396e-01  1.3965573015170740e-01  1.4042074549123462e-01  1.4075593959551694e-01  1.4091003677815511e-01  1.4098406445521777e-01  1.4102049799888314e-01  1.4103824219820948e-01  1.4104630645715177e-01  1.4104928809479728e-01  1.4104969213830862e-01  1.4104898786506548e-01  1.4104809915533253e-01  2.0691060120450511e-01  2.0689155032675066e-01  1.4103882570483844e-01  1.4103887759095668e-01  1.4103895238853717e-01  1.4103904186758223e-01  1.4103913905131812e-01  1.4103923736813503e-01  1.4103933009414785e-01  1.4103941032375983e-01  1.4103947128976985e-01  1.4103950680608038e-01  1.4103951166936446e-01  1.4103948191338603e-01  1.4103941485282315e-01  1.4103930890084024e-01  1.4103916321984569e-01  1.4103897734990106e-01  1.4103875099561666e-01  1.4103848416817857e-01  1.4103817782390432e-01  1.4103783474712281e-01  1.4103746085417260e-01  1.4103706734755311e-01  1.4103667376245307e-01  1.4103631134328784e-01  1.4103602578749966e-01  1.4103587708915749e-01  1.4103593498964573e-01  1.4103627028961593e-01  1.4103694004365258e-01  1.4103796740767960e-01  1.4103931506753969e-01  1.4104085103657674e-01  1.4104230612793017e-01  1.4104322279660797e-01  1.4104289438903622e-01  1.4104029046655642e-01  1.4103395816964057e-01  1.4102188285314174e-01  1.4100128469539353e-01  1.4096832335195639e-01  1.4091768922665038e-01  1.4084200853352877e-01  1.4073101720382383e-01  1.4057055907165247e-01  1.4034117900415904e-01  1.4001645944010455e-01  1.3956108118716520e-01  1.3892849331668317e-01  1.3805803635066588e-01  1.3687164493997150e-01  1.3527188425632142e-01  1.3314649399918585e-01  1.3039302310843229e-01  1.2700659476577839e-01  1.2334997320773425e-01  1.2094966610870969e-01  1.2441706839499141e-01  1.3516775370584971e-01  1.3424808811093109e-01  1.3421850706494157e-01  1.3336467775681932e-01  2.1420007785846223e-01  3.1859677614792264e-01  4.0701063047679048e-01  7.7334766853587344e-01  8.7561548758429886e-01  9.0365167428899940e-01  8.6551378056745110e-01  8.7234116263077033e-01  8.7527276704986889e-01  8.7895194177062852e-01  8.8435713593900556e-01  8.9055585424760653e-01  8.9670670284407916e-01  9.0199727107463767e-01  9.0708231187310329e-01  9.1235307203146698e-01  9.1468538435760649e-01  9.0980747910625337e-01  8.9930518564738471e-01  8.7463449828879170e-01  7.8663060249428984e-01  6.6537186211436949e-01  5.9267123500556018e-01  5.3989008908749392e-01  2.0867004080374563e-01  1.3787794012585608e-01  1.3958178408997263e-01  1.4032384231762696e-01  1.4067433178701028e-01  1.4085289443589513e-01  1.4094823569420767e-01  1.4099991000728299e-01  1.4102757311452485e-01  1.4104181103475150e-01  1.4104858818984259e-01  1.4105135251638370e-01  1.4105215060280102e-01  1.4105216204443627e-01  2.0692184707941982e-01  2.0689178670216504e-01  1.4103892684916119e-01  1.4103897712029162e-01  1.4103905181262633e-01  1.4103914051217281e-01  1.4103923344512284e-01  1.4103932165226560e-01  1.4103939654988507e-01  1.4103944980757133e-01  1.4103947361853880e-01  1.4103946117704580e-01  1.4103940716640317e-01  1.4103930810115467e-01  1.4103916241909614e-01  1.4103897029574267e-01  1.4103873327460811e-01  1.4103845393094533e-01  1.4103813578997071e-01  1.4103778371426678e-01  1.4103740483026134e-01  1.4103700915577433e-01  1.41036610314