<?xml version="1.0"?>
<VTKFile type="UnstructuredGrid"  version="0.1"  >
<UnstructuredGrid>
<Piece  NumberOfPoints="5151" NumberOfCells="10000">
<Points>
<DataArray  type="Float64"  NumberOfComponents="3"  format="ascii">0 0 0  0.02 0 0  0.04 0 0  0.06 0 0  0.08 0 0  0.1 0 0  0.12 0 0  0.14 0 0  0.16 0 0  0.18 0 0  0.2 0 0  0.22 0 0  0.24 0 0  0.26 0 0  0.28 0 0  0.3 0 0  0.32 0 0  0.34 0 0  0.36 0 0  0.38 0 0  0.4 0 0  0.42 0 0  0.44 0 0  0.46 0 0  0.48 0 0  0.5 0 0  0.52 0 0  0.54 0 0  0.5600000000000001 0 0  0.58 0 0  0.6 0 0  0.62 0 0  0.64 0 0  0.66 0 0  0.68 0 0  0.7 0 0  0.72 0 0  0.74 0 0  0.76 0 0  0.78 0 0  0.8 0 0  0.82 0 0  0.84 0 0  0.86 0 0  0.88 0 0  0.9 0 0  0.92 0 0  0.9399999999999999 0 0  0.96 0 0  0.98 0 0  1 0 0  1.02 0 0  1.04 0 0  1.06 0 0  1.08 0 0  1.1 0 0  1.12 0 0  1.14 0 0  1.16 0 0  1.18 0 0  1.2 0 0  1.22 0 0  1.24 0 0  1.26 0 0  1.28 0 0  1.3 0 0  1.32 0 0  1.34 0 0  1.36 0 0  1.38 0 0  1.4 0 0  1.42 0 0  1.44 0 0  1.46 0 0  1.48 0 0  1.5 0 0  1.52 0 0  1.54 0 0  1.56 0 0  1.58 0 0  1.6 0 0  1.62 0 0  1.64 0 0  1.66 0 0  1.68 0 0  1.7 0 0  1.72 0 0  1.74 0 0  1.76 0 0  1.78 0 0  1.8 0 0  1.82 0 0  1.84 0 0  1.86 0 0  1.88 0 0  1.9 0 0  1.92 0 0  1.94 0 0  1.96 0 0  1.98 0 0  2 0 0  0 0.02 0  0.02 0.02 0  0.04 0.02 0  0.06 0.02 0  0.08 0.02 0  0.1 0.02 0  0.12 0.02 0  0.14 0.02 0  0.16 0.02 0  0.18 0.02 0  0.2 0.02 0  0.22 0.02 0  0.24 0.02 0  0.26 0.02 0  0.28 0.02 0  0.3 0.02 0  0.32 0.02 0  0.34 0.02 0  0.36 0.02 0  0.38 0.02 0  0.4 0.02 0  0.42 0.02 0  0.44 0.02 0  0.46 0.02 0  0.48 0.02 0  0.5 0.02 0  0.52 0.02 0  0.54 0.02 0  0.5600000000000001 0.02 0  0.58 0.02 0  0.6 0.02 0  0.62 0.02 0  0.64 0.02 0  0.66 0.02 0  0.68 0.02 0  0.7 0.02 0  0.72 0.02 0  0.74 0.02 0  0.76 0.02 0  0.78 0.02 0  0.8 0.02 0  0.82 0.02 0  0.84 0.02 0  0.86 0.02 0  0.88 0.02 0  0.9 0.02 0  0.92 0.02 0  0.9399999999999999 0.02 0  0.96 0.02 0  0.98 0.02 0  1 0.02 0  1.02 0.02 0  1.04 0.02 0  1.06 0.02 0  1.08 0.02 0  1.1 0.02 0  1.12 0.02 0  1.14 0.02 0  1.16 0.02 0  1.18 0.02 0  1.2 0.02 0  1.22 0.02 0  1.24 0.02 0  1.26 0.02 0  1.28 0.02 0  1.3 0.02 0  1.32 0.02 0  1.34 0.02 0  1.36 0.02 0  1.38 0.02 0  1.4 0.02 0  1.42 0.02 0  1.44 0.02 0  1.46 0.02 0  1.48 0.02 0  1.5 0.02 0  1.52 0.02 0  1.54 0.02 0  1.56 0.02 0  1.58 0.02 0  1.6 0.02 0  1.62 0.02 0  1.64 0.02 0  1.66 0.02 0  1.68 0.02 0  1.7 0.02 0  1.72 0.02 0  1.74 0.02 0  1.76 0.02 0  1.78 0.02 0  1.8 0.02 0  1.82 0.02 0  1.84 0.02 0  1.86 0.02 0  1.88 0.02 0  1.9 0.02 0  1.92 0.02 0  1.94 0.02 0  1.96 0.02 0  1.98 0.02 0  2 0.02 0  0 0.04 0  0.02 0.04 0  0.04 0.04 0  0.06 0.04 0  0.08 0.04 0  0.1 0.04 0  0.12 0.04 0  0.14 0.04 0  0.16 0.04 0  0.18 0.04 0  0.2 0.04 0  0.22 0.04 0  0.24 0.04 0  0.26 0.04 0  0.28 0.04 0  0.3 0.04 0  0.32 0.04 0  0.34 0.04 0  0.36 0.04 0  0.38 0.04 0  0.4 0.04 0  0.42 0.04 0  0.44 0.04 0  0.46 0.04 0  0.48 0.04 0  0.5 0.04 0  0.52 0.04 0  0.54 0.04 0  0.5600000000000001 0.04 0  0.58 0.04 0  0.6 0.04 0  0.62 0.04 0  0.64 0.04 0  0.66 0.04 0  0.68 0.04 0  0.7 0.04 0  0.72 0.04 0  0.74 0.04 0  0.76 0.04 0  0.78 0.04 0  0.8 0.04 0  0.82 0.04 0  0.84 0.04 0  0.86 0.04 0  0.88 0.04 0  0.9 0.04 0  0.92 0.04 0  0.9399999999999999 0.04 0  0.96 0.04 0  0.98 0.04 0  1 0.04 0  1.02 0.04 0  1.04 0.04 0  1.06 0.04 0  1.08 0.04 0  1.1 0.04 0  1.12 0.04 0  1.14 0.04 0  1.16 0.04 0  1.18 0.04 0  1.2 0.04 0  1.22 0.04 0  1.24 0.04 0  1.26 0.04 0  1.28 0.04 0  1.3 0.04 0  1.32 0.04 0  1.34 0.04 0  1.36 0.04 0  1.38 0.04 0  1.4 0.04 0  1.42 0.04 0  1.44 0.04 0  1.46 0.04 0  1.48 0.04 0  1.5 0.04 0  1.52 0.04 0  1.54 0.04 0  1.56 0.04 0  1.58 0.04 0  1.6 0.04 0  1.62 0.04 0  1.64 0.04 0  1.66 0.04 0  1.68 0.04 0  1.7 0.04 0  1.72 0.04 0  1.74 0.04 0  1.76 0.04 0  1.78 0.04 0  1.8 0.04 0  1.82 0.04 0  1.84 0.04 0  1.86 0.04 0  1.88 0.04 0  1.9 0.04 0  1.92 0.04 0  1.94 0.04 0  1.96 0.04 0  1.98 0.04 0  2 0.04 0  0 0.06 0  0.02 0.06 0  0.04 0.06 0  0.06 0.06 0  0.08 0.06 0  0.1 0.06 0  0.12 0.06 0  0.14 0.06 0  0.16 0.06 0  0.18 0.06 0  0.2 0.06 0  0.22 0.06 0  0.24 0.06 0  0.26 0.06 0  0.28 0.06 0  0.3 0.06 0  0.32 0.06 0  0.34 0.06 0  0.36 0.06 0  0.38 0.06 0  0.4 0.06 0  0.42 0.06 0  0.44 0.06 0  0.46 0.06 0  0.48 0.06 0  0.5 0.06 0  0.52 0.06 0  0.54 0.06 0  0.5600000000000001 0.06 0  0.58 0.06 0  0.6 0.06 0  0.62 0.06 0  0.64 0.06 0  0.66 0.06 0  0.68 0.06 0  0.7 0.06 0  0.72 0.06 0  0.74 0.06 0  0.76 0.06 0  0.78 0.06 0  0.8 0.06 0  0.82 0.06 0  0.84 0.06 0  0.86 0.06 0  0.88 0.06 0  0.9 0.06 0  0.92 0.06 0  0.9399999999999999 0.06 0  0.96 0.06 0  0.98 0.06 0  1 0.06 0  1.02 0.06 0  1.04 0.06 0  1.06 0.06 0  1.08 0.06 0  1.1 0.06 0  1.12 0.06 0  1.14 0.06 0  1.16 0.06 0  1.18 0.06 0  1.2 0.06 0  1.22 0.06 0  1.24 0.06 0  1.26 0.06 0  1.28 0.06 0  1.3 0.06 0  1.32 0.06 0  1.34 0.06 0  1.36 0.06 0  1.38 0.06 0  1.4 0.06 0  1.42 0.06 0  1.44 0.06 0  1.46 0.06 0  1.48 0.06 0  1.5 0.06 0  1.52 0.06 0  1.54 0.06 0  1.56 0.06 0  1.58 0.06 0  1.6 0.06 0  1.62 0.06 0  1.64 0.06 0  1.66 0.06 0  1.68 0.06 0  1.7 0.06 0  1.72 0.06 0  1.74 0.06 0  1.76 0.06 0  1.78 0.06 0  1.8 0.06 0  1.82 0.06 0  1.84 0.06 0  1.86 0.06 0  1.88 0.06 0  1.9 0.06 0  1.92 0.06 0  1.94 0.06 0  1.96 0.06 0  1.98 0.06 0  2 0.06 0  0 0.08 0  0.02 0.08 0  0.04 0.08 0  0.06 0.08 0  0.08 0.08 0  0.1 0.08 0  0.12 0.08 0  0.14 0.08 0  0.16 0.08 0  0.18 0.08 0  0.2 0.08 0  0.22 0.08 0  0.24 0.08 0  0.26 0.08 0  0.28 0.08 0  0.3 0.08 0  0.32 0.08 0  0.34 0.08 0  0.36 0.08 0  0.38 0.08 0  0.4 0.08 0  0.42 0.08 0  0.44 0.08 0  0.46 0.08 0  0.48 0.08 0  0.5 0.08 0  0.52 0.08 0  0.54 0.08 0  0.5600000000000001 0.08 0  0.58 0.08 0  0.6 0.08 0  0.62 0.08 0  0.64 0.08 0  0.66 0.08 0  0.68 0.08 0  0.7 0.08 0  0.72 0.08 0  0.74 0.08 0  0.76 0.08 0  0.78 0.08 0  0.8 0.08 0  0.82 0.08 0  0.84 0.08 0  0.86 0.08 0  0.88 0.08 0  0.9 0.08 0  0.92 0.08 0  0.9399999999999999 0.08 0  0.96 0.08 0  0.98 0.08 0  1 0.08 0  1.02 0.08 0  1.04 0.08 0  1.06 0.08 0  1.08 0.08 0  1.1 0.08 0  1.12 0.08 0  1.14 0.08 0  1.16 0.08 0  1.18 0.08 0  1.2 0.08 0  1.22 0.08 0  1.24 0.08 0  1.26 0.08 0  1.28 0.08 0  1.3 0.08 0  1.32 0.08 0  1.34 0.08 0  1.36 0.08 0  1.38 0.08 0  1.4 0.08 0  1.42 0.08 0  1.44 0.08 0  1.46 0.08 0  1.48 0.08 0  1.5 0.08 0  1.52 0.08 0  1.54 0.08 0  1.56 0.08 0  1.58 0.08 0  1.6 0.08 0  1.62 0.08 0  1.64 0.08 0  1.66 0.08 0  1.68 0.08 0  1.7 0.08 0  1.72 0.08 0  1.74 0.08 0  1.76 0.08 0  1.78 0.08 0  1.8 0.08 0  1.82 0.08 0  1.84 0.08 0  1.86 0.08 0  1.88 0.08 0  1.9 0.08 0  1.92 0.08 0  1.94 0.08 0  1.96 0.08 0  1.98 0.08 0  2 0.08 0  0 0.1 0  0.02 0.1 0  0.04 0.1 0  0.06 0.1 0  0.08 0.1 0  0.1 0.1 0  0.12 0.1 0  0.14 0.1 0  0.16 0.1 0  0.18 0.1 0  0.2 0.1 0  0.22 0.1 0  0.24 0.1 0  0.26 0.1 0  0.28 0.1 0  0.3 0.1 0  0.32 0.1 0  0.34 0.1 0  0.36 0.1 0  0.38 0.1 0  0.4 0.1 0  0.42 0.1 0  0.44 0.1 0  0.46 0.1 0  0.48 0.1 0  0.5 0.1 0  0.52 0.1 0  0.54 0.1 0  0.5600000000000001 0.1 0  0.58 0.1 0  0.6 0.1 0  0.62 0.1 0  0.64 0.1 0  0.66 0.1 0  0.68 0.1 0  0.7 0.1 0  0.72 0.1 0  0.74 0.1 0  0.76 0.1 0  0.78 0.1 0  0.8 0.1 0  0.82 0.1 0  0.84 0.1 0  0.86 0.1 0  0.88 0.1 0  0.9 0.1 0  0.92 0.1 0  0.9399999999999999 0.1 0  0.96 0.1 0  0.98 0.1 0  1 0.1 0  1.02 0.1 0  1.04 0.1 0  1.06 0.1 0  1.08 0.1 0  1.1 0.1 0  1.12 0.1 0  1.14 0.1 0  1.16 0.1 0  1.18 0.1 0  1.2 0.1 0  1.22 0.1 0  1.24 0.1 0  1.26 0.1 0  1.28 0.1 0  1.3 0.1 0  1.32 0.1 0  1.34 0.1 0  1.36 0.1 0  1.38 0.1 0  1.4 0.1 0  1.42 0.1 0  1.44 0.1 0  1.46 0.1 0  1.48 0.1 0  1.5 0.1 0  1.52 0.1 0  1.54 0.1 0  1.56 0.1 0  1.58 0.1 0  1.6 0.1 0  1.62 0.1 0  1.64 0.1 0  1.66 0.1 0  1.68 0.1 0  1.7 0.1 0  1.72 0.1 0  1.74 0.1 0  1.76 0.1 0  1.78 0.1 0  1.8 0.1 0  1.82 0.1 0  1.84 0.1 0  1.86 0.1 0  1.88 0.1 0  1.9 0.1 0  1.92 0.1 0  1.94 0.1 0  1.96 0.1 0  1.98 0.1 0  2 0.1 0  0 0.12 0  0.02 0.12 0  0.04 0.12 0  0.06 0.12 0  0.08 0.12 0  0.1 0.12 0  0.12 0.12 0  0.14 0.12 0  0.16 0.12 0  0.18 0.12 0  0.2 0.12 0  0.22 0.12 0  0.24 0.12 0  0.26 0.12 0  0.28 0.12 0  0.3 0.12 0  0.32 0.12 0  0.34 0.12 0  0.36 0.12 0  0.38 0.12 0  0.4 0.12 0  0.42 0.12 0  0.44 0.12 0  0.46 0.12 0  0.48 0.12 0  0.5 0.12 0  0.52 0.12 0  0.54 0.12 0  0.5600000000000001 0.12 0  0.58 0.12 0  0.6 0.12 0  0.62 0.12 0  0.64 0.12 0  0.66 0.12 0  0.68 0.12 0  0.7 0.12 0  0.72 0.12 0  0.74 0.12 0  0.76 0.12 0  0.78 0.12 0  0.8 0.12 0  0.82 0.12 0  0.84 0.12 0  0.86 0.12 0  0.88 0.12 0  0.9 0.12 0  0.92 0.12 0  0.9399999999999999 0.12 0  0.96 0.12 0  0.98 0.12 0  1 0.12 0  1.02 0.12 0  1.04 0.12 0  1.06 0.12 0  1.08 0.12 0  1.1 0.12 0  1.12 0.12 0  1.14 0.12 0  1.16 0.12 0  1.18 0.12 0  1.2 0.12 0  1.22 0.12 0  1.24 0.12 0  1.26 0.12 0  1.28 0.12 0  1.3 0.12 0  1.32 0.12 0  1.34 0.12 0  1.36 0.12 0  1.38 0.12 0  1.4 0.12 0  1.42 0.12 0  1.44 0.12 0  1.46 0.12 0  1.48 0.12 0  1.5 0.12 0  1.52 0.12 0  1.54 0.12 0  1.56 0.12 0  1.58 0.12 0  1.6 0.12 0  1.62 0.12 0  1.64 0.12 0  1.66 0.12 0  1.68 0.12 0  1.7 0.12 0  1.72 0.12 0  1.74 0.12 0  1.76 0.12 0  1.78 0.12 0  1.8 0.12 0  1.82 0.12 0  1.84 0.12 0  1.86 0.12 0  1.88 0.12 0  1.9 0.12 0  1.92 0.12 0  1.94 0.12 0  1.96 0.12 0  1.98 0.12 0  2 0.12 0  0 0.14 0  0.02 0.14 0  0.04 0.14 0  0.06 0.14 0  0.08 0.14 0  0.1 0.14 0  0.12 0.14 0  0.14 0.14 0  0.16 0.14 0  0.18 0.14 0  0.2 0.14 0  0.22 0.14 0  0.24 0.14 0  0.26 0.14 0  0.28 0.14 0  0.3 0.14 0  0.32 0.14 0  0.34 0.14 0  0.36 0.14 0  0.38 0.14 0  0.4 0.14 0  0.42 0.14 0  0.44 0.14 0  0.46 0.14 0  0.48 0.14 0  0.5 0.14 0  0.52 0.14 0  0.54 0.14 0  0.5600000000000001 0.14 0  0.58 0.14 0  0.6 0.14 0  0.62 0.14 0  0.64 0.14 0  0.66 0.14 0  0.68 0.14 0  0.7 0.14 0  0.72 0.14 0  0.74 0.14 0  0.76 0.14 0  0.78 0.14 0  0.8 0.14 0  0.82 0.14 0  0.84 0.14 0  0.86 0.14 0  0.88 0.14 0  0.9 0.14 0  0.92 0.14 0  0.9399999999999999 0.14 0  0.96 0.14 0  0.98 0.14 0  1 0.14 0  1.02 0.14 0  1.04 0.14 0  1.06 0.14 0  1.08 0.14 0  1.1 0.14 0  1.12 0.14 0  1.14 0.14 0  1.16 0.14 0  1.18 0.14 0  1.2 0.14 0  1.22 0.14 0  1.24 0.14 0  1.26 0.14 0  1.28 0.14 0  1.3 0.14 0  1.32 0.14 0  1.34 0.14 0  1.36 0.14 0  1.38 0.14 0  1.4 0.14 0  1.42 0.14 0  1.44 0.14 0  1.46 0.14 0  1.48 0.14 0  1
[...]
<PointData  Scalars="sols[i]"> 
<DataArray  type="Float64"  Name="sols[i]"  format="ascii">6.0580907600550473e-05  4.0384473215500712e-05  4.0384473215504398e-05  4.0384473215511825e-05  4.0384473215525791e-05  4.0384473215551263e-05  4.0384473215596711e-05  4.0384473215676630e-05  4.0384473215814575e-05  4.0384473216048207e-05  4.0384473216436256e-05  4.0384473217066842e-05  4.0384473218067974e-05  4.0384473219618451e-05  4.0384473221957224e-05  4.0384473225388724e-05  4.0384473230283036e-05  4.0384473237069803e-05  4.0384473246232856e-05  4.0384473258320782e-05  4.0384473273994293e-05  4.0384473294137794e-05  4.0384473320055348e-05  4.0384473353749018e-05  4.0384473398253484e-05  4.0384473457978442e-05  4.0384473539002395e-05  4.0384473649285834e-05  4.0384473798814274e-05  4.0384473999738445e-05  4.0384474266632231e-05  4.0384474617009388e-05  4.0384475072243444e-05  4.0384475659011349e-05  4.0384476411366078e-05  4.0384477373551718e-05  4.0384478603725443e-05  4.0384480178833732e-05  4.0384482201026943e-05  4.0384484806160283e-05  4.0384488175131278e-05  4.0384492549036264e-05  4.0384498249388530e-05  4.0384505704893337e-05  4.0384515486461891e-05  4.0384528352044575e-05  4.0384545302057894e-05  4.0384567643904007e-05  4.0384597059229224e-05  4.0384635658916364e-05  4.0384685997809927e-05  4.0384751005330107e-05  4.0384833775120084e-05  4.0384937157939757e-05  4.0385063132182039e-05  4.0385211997154688e-05  4.0385381542030426e-05  4.0385566458291508e-05  4.0385758325643972e-05  4.0385946430650471e-05  4.0386119416483195e-05  4.0386267365223706e-05  4.0386383604396995e-05  4.0386465567747741e-05  4.0386514454370762e-05  4.0386533952702029e-05  4.0386528607485715e-05  4.0386502392908534e-05  4.0386457824507339e-05  4.0386395697707771e-05  4.0386315399441132e-05  4.0386215672627939e-05  4.0386095659707670e-05  4.0385956002065739e-05  4.0385799741152236e-05  4.0385632765849226e-05  4.0385463575754647e-05  4.0385302199606194e-05  4.0385158291121733e-05  4.0385038771808396e-05  4.0384945798851677e-05  4.0384876034929444e-05  4.0384821966165527e-05  4.0384775143906674e-05  4.0384729707887686e-05  4.0384683963110769e-05  4.0384639448379072e-05  4.0384598856737228e-05  4.0384564350444467e-05  4.0384536860159821e-05  4.0384516167090418e-05  4.0384501329477455e-05  4.0384491122752640e-05  4.0384484347245543e-05  4.0384479986772115e-05  4.0384477257403402e-05  4.0384475594130957e-05  4.0384474611887475e-05  4.0384474063038992e-05  4.0384473802832659e-05  1.2116902082154028e-04  4.0384473215500434e-05  2.0187560188093753e-05  2.0187560188095762e-05  2.0187560188099919e-05  2.0187560188107817e-05  2.0187560188122382e-05  2.0187560188148657e-05  2.0187560188195315e-05  2.0187560188276739e-05  2.0187560188416198e-05  2.0187560188650440e-05  2.0187560189035518e-05  2.0187560189653964e-05  2.0187560190622732e-05  2.0187560192100212e-05  2.0187560194290578e-05  2.0187560197443665e-05  2.0187560201849700e-05  2.0187560207831856e-05  2.0187560215746895e-05  2.0187560226009492e-05  2.0187560239160739e-05  2.0187560255997890e-05  2.0187560277767115e-05  2.0187560306400711e-05  2.0187560344762240e-05  2.0187560396856085e-05  2.0187560467971873e-05  2.0187560564766980e-05  2.0187560695332101e-05  2.0187560869325056e-05  2.0187561098275940e-05  2.0187561396164207e-05  2.0187561780350285e-05  2.0187562272926676e-05  2.0187562902556318e-05  2.0187563706896200e-05  2.0187564735762045e-05  2.0187566055278210e-05  2.0187567753370652e-05  2.0187569947095550e-05  2.0187572792455626e-05  2.0187576497537593e-05  2.0187581339999575e-05  2.0187587690118943e-05  2.0187596040668551e-05  2.0187607044565892e-05  2.0187621560034963e-05  2.0187640700122905e-05  2.0187665877806705e-05  2.0187698828834452e-05  2.0187741582313913e-05  2.0187796337250426e-05  2.0187865199695100e-05  2.0187949751791493e-05  2.0188050471650355e-05  2.0188166102469399e-05  2.0188293162240032e-05  2.0188425849281701e-05  2.0188556568930799e-05  2.0188677121847240e-05  2.0188780274976427e-05  2.0188861160816001e-05  2.0188917958822867e-05  2.0188951644833882e-05  2.0188965020958238e-05  2.0188961484790538e-05  2.0188943971994878e-05  2.0188914310131241e-05  2.0188873028638020e-05  2.0188819576786808e-05  2.0188752867640562e-05  2.0188672030955919e-05  2.0188577220885422e-05  2.0188470299725789e-05  2.0188355217296696e-05  2.0188237916304161e-05  2.0188125622779930e-05  2.0188025489946688e-05  2.0187942820539995e-05  2.0187879434004540e-05  2.0187832943753140e-05  2.0187797617553021e-05  2.0187766910050525e-05  2.0187736372430665e-05  2.0187704921568524e-05  2.0187673975572263e-05  2.0187645719921853e-05  2.0187621809785470e-05  2.0187602904936491e-05  2.0187588799663064e-05  2.0187578777519972e-05  2.0187571944343216e-05  2.0187567446313616e-05  2.0187564574150937e-05  2.0187562789198268e-05  2.0187561708132246e-05  2.0187561072206834e-05  2.0187560715687062e-05  2.0187560540186751e-05  4.0384473795325047e-05  4.0384473215503199e-05  2.0187560188095345e-05  2.0187560188098503e-05  2.0187560188105086e-05  2.0187560188117785e-05  2.0187560188141522e-05  2.0187560188185042e-05  2.0187560188263556e-05  2.0187560188402845e-05  2.0187560188645459e-05  2.0187560189059858e-05  2.0187560189752538e-05  2.0187560190883415e-05  2.0187560192683058e-05  2.0187560195468760e-05  2.0187560199654509e-05  2.0187560205749809e-05  2.0187560214343551e-05  2.0187560226077573e-05  2.0187560241630307e-05  2.0187560261747374e-05  2.0187560287369375e-05  2.0187560319900556e-05  2.0187560361625945e-05  2.0187560416232150e-05  2.0187560489340451e-05  2.0187560588943621e-05  2.0187560725670507e-05  2.0187560912880571e-05  2.0187561166693004e-05  2.0187561506147139e-05  2.0187561953728222e-05  2.0187562536471318e-05  2.0187563287798250e-05  2.0187564250192039e-05  2.0187565478811663e-05  2.0187567046212887e-05  2.0187569048464130e-05  2.0187571613129258e-05  2.0187574909820469e-05  2.0187579164299440e-05  2.0187584677425834e-05  2.0187591850627757e-05  2.0187601220011688e-05  2.0187613501729919e-05  2.0187629651640125e-05  2.0187650942186782e-05  2.0187679057805251e-05  2.0187716205158759e-05  2.0187765223548381e-05  2.0187829661201006e-05  2.0187913754112368e-05  2.0188022211418113e-05  2.0188159692800433e-05  2.0188329889653931e-05  2.0188534223931081e-05  2.0188770366138530e-05  2.0189031010740446e-05  2.0189303538874451e-05  2.0189571177557128e-05  2.0189815826873057e-05  2.0190021863848417e-05  2.0190179452308853e-05  2.0190285944080437e-05  2.0190344936482241e-05  2.0190363699874127e-05  2.0190350223353802e-05  2.0190310906658926e-05  2.0190249318913528e-05  2.0190165969445186e-05  2.0190058916772748e-05  2.0189925047308159e-05  2.0189761785251415e-05  2.0189568905830220e-05  2.0189350067850388e-05  2.0189113691601336e-05  2.0188872819594259e-05  2.0188643590132167e-05  2.0188442128399156e-05  2.0188280285133899e-05  2.0188161593012833e-05  2.0188079344922617e-05  2.0188018670923359e-05  2.0187963389529059e-05  2.0187903911290935e-05  2.0187839797613772e-05  2.0187776231333119e-05  2.0187719055695732e-05  2.0187671907943565e-05  2.0187635735056708e-05  2.0187609566723776e-05  2.0187591522589765e-05  2.0187579563391007e-05  2.0187571896409368e-05  2.0187567119711589e-05  2.0187564218452366e-05  2.0187562498458363e-05  2.0187561506471590e-05  2.0187560960091720e-05  2.0187560695385234e-05  4.0384474021271316e-05  4.0384473215508383e-05  2.0187560188098411e-05  2.0187560188103822e-05  2.0187560188115260e-05  2.0187560188137612e-05  2.0187560188180031e-05  2.0187560188259100e-05  2.0187560188404177e-05  2.0187560188665995e-05  2.0187560189130060e-05  2.0187560189936727e-05  2.0187560191308934e-05  2.0187560193588310e-05  2.0187560197277219e-05  2.0187560203079541e-05  2.0187560211928020e-05  2.0187560224982014e-05  2.0187560243581966e-05  2.0187560269164997e-05  2.0187560303184839e-05  2.0187560347130155e-05  2.0187560402776615e-05  2.0187560472797440e-05  2.0187560561763906e-05  2.0187560677419618e-05  2.0187560831980779e-05  2.0187561043167245e-05  2.0187561334749450e-05  2.0187561736600928e-05  2.0187562284522157e-05  2.0187563020341068e-05  2.0187563992882651e-05  2.0187565260312016e-05  2.0187566894171459e-05  2.0187568985280266e-05  2.0187571651650314e-05  2.0187575048717288e-05  2.0187579382479535e-05  2.0187584926554863e-05  2.0187592044690693e-05  2.0187601220878843e-05  2.0187613099935043e-05  2.0187628542235872e-05  2.0187648697346773e-05  2.0187675102611162e-05  2.0187709814282253e-05  2.0187755579752860e-05  2.0187816057801038e-05  2.0187896085155830e-05  2.0188001965170868e-05  2.0188141709402951e-05  2.0188325089049485e-05  2.0188563258450725e-05  2.0188867639731671e-05  2.0189247789763503e-05  2.0189708203242380e-05  2.0190244482137722e-05  2.0190839948960579e-05  2.0191464388635907e-05  2.0192076729005666e-05  2.0192632396164097e-05  2.0193093529143768e-05  2.0193437755571600e-05  2.0193661436378665e-05  2.0193776413185637e-05  2.0193802684226989e-05  2.0193760666923849e-05  2.0193665702732289e-05  2.0193525506253528e-05  2.0193339999992320e-05  2.0193102997559230e-05  2.0192805428515145e-05  2.0192439580931902e-05  2.0192003582914190e-05  2.0191505194897038e-05  2.0190964077190531e-05  2.0190411722912875e-05  2.0189888007831946e-05  2.0189433473666191e-05  2.0189078112163018e-05  2.0188830297189351e-05  2.0188670883885071e-05  2.0188557993095350e-05  2.0188447175656456e-05  2.0188315608917595e-05  2.0188167527100418e-05  2.0188020611589923e-05  2.0187891071003217e-05  2.0187787231028539e-05  2.0187709979737055e-05  2.0187655775105291e-05  2.0187619468302939e-05  2.0187596048724160e-05  2.0187581408383940e-05  2.0187572499290631e-05  2.0187567206434244e-05  2.0187564133256749e-05  2.0187562394806670e-05  2.0187561453506393e-05  2.0187561003592219e-05  4.0384474488477932e-05  4.0384473215517354e-05  2.0187560188103782e-05  2.0187560188113275e-05  2.0187560188133546e-05  2.0187560188173713e-05  2.0187560188251111e-05  2.0187560188397671e-05  2.0187560188671023e-05  2.0187560189172703e-05  2.0187560190077375e-05  2.0187560191677569e-05  2.0187560194447865e-05  2.0187560199131046e-05  2.0187560206842149e-05  2.0187560219174874e-05  2.0187560238279103e-05  2.0187560266863466e-05  2.0187560308076003e-05  2.0187560365254624e-05  2.0187560441636775e-05  2.0187560540266013e-05  2.0187560664467820e-05  2.0187560819259506e-05  2.0187561013809259e-05  2.0187561264637968e-05  2.0187561598884660e-05  2.0187562056823123e-05  2.0187562693019304e-05  2.0187563576063657e-05  2.0187564787568972e-05  2.0187566421774879e-05  2.0187568587300952e-05  2.0187571412275222e-05  2.0187575053493340e-05  2.0187579709821625e-05  2.0187585640006103e-05  2.0187593185418775e-05  2.0187602798980092e-05  2.0187615082479532e-05  2.0187630835733075e-05  2.0187651122425828e-05  2.0187677359069267e-05  2.0187711435324835e-05  2.0187755876299115e-05  2.0187814060735774e-05  2.0187890513498755e-05  2.0187991295508632e-05  2.0188124515375038e-05  2.0188300974240587e-05  2.0188534911270477e-05  2.0188844716922719e-05  2.0189253296691797e-05  2.0189787499278579e-05  2.0190475767850485e-05  2.0191343161659936e-05  2.0192403415003459e-05  2.0193648911006588e-05  2.0195041197084622e-05  2.0196506544908897e-05  2.0197941993406191e-05  2.0199234845673593e-05  2.0200290874016953e-05  2.0201058262145114e-05  2.0201535080780694e-05  2.0201758360510719e-05  2.0201783013616326e-05  2.0201661406598925e-05  2.0201430427544622e-05  2.0201106641316134e-05  2.0200686814229062e-05  2.0200152377168002e-05  2.0199477579132187e-05  2.0198640144809830e-05  2.0197632513234619e-05  2.0196471296327168e-05  2.0195203140972856e-05  2.0193905359517653e-05  2.0192678391716885e-05  2.0191626577435123e-05  2.0190828119237824e-05  2.0190304465524740e-05  2.0190001867157787e-05  2.0189800186341669e-05  2.0189573587291253e-05  2.0189268364730550e-05  2.0188912124373255e-05  2.0188562353011827e-05  2.0188262443894694e-05  2.0188029863910641e-05  2.0187862480892605e-05  2.0187748636130201e-05  2.0187674523285485e-05  2.0187627938014379e-05  2.0187599496411143e-05  2.0187582563533602e-05  2.0187572708465763e-05  2.0187567096615789e-05  2.0187563979399957e-05  2.0187562318544723e-05  2.0187561533971775e-05  4.0384475295650065e-05  4.0384473215532282e-05  2.0187560188112824e-05  2.0187560188129382e-05  2.0187560188165158e-05  2.0187560188236999e-05  2.0187560188377499e-05  2.0187560188647790e-05  2.0187560189160218e-05  2.0187560190116749e-05  2.0187560191872045e-05  2.0187560195032769e-05  2.0187560200605019e-05  2.0187560210199097e-05  2.0187560226287187e-05  2.0187560252481558e-05  2.0187560293757088e-05  2.0187560356491407e-05  2.0187560448173461e-05  2.0187560576703839e-05  2.0187560749454267e-05  2.0187560972677285e-05  2.0187561252293625e-05  2.0187561597138061e-05  2.0187562025061427e-05  2.0187562571068226e-05  2.0187563295621903e-05  2.0187564290886901e-05  2.0187565683181837e-05  2.0187567631362458e-05  2.0187570322950682e-05  2.0187573971633597e-05  2.0187578820208369e-05  2.0187585151974481e-05  2.0187593311828509e-05  2.0187603737063511e-05  2.0187616997774346e-05  2.0187633847745454e-05  2.0187655288426686e-05  2.0187682650920412e-05  2.0187717703741979e-05  2.0187762797369027e-05  2.0187821060121495e-05  2.0187896663786371e-05  2.0187995182449860e-05  2.0188124075718843e-05  2.0188293339304108e-05  2.0188516382075863e-05  2.0188811202715078e-05  2.0189201928216070e-05  2.0189720698675163e-05  2.0190409672547020e-05  2.0191322483502742e-05  2.0192523736884857e-05  2.0194084299347125e-05  2.0196069842643866e-05  2.0198521211377374e-05  2.0201428229724893e-05  2.0204703152261201e-05  2.0208165538422000e-05  2.0211554870028054e-05  2.0214582535561343e-05  2.0217011165588846e-05  2.0218721124620726e-05  2.0219726948985336e-05  2.0220141090419919e-05  2.0220113098678710e-05  2.0219775979309872e-05  2.0219217027825779e-05  2.0218470543586905e-05  2.0217521264085251e-05  2.0216315541186503e-05  2.0214781850634517e-05  2.0212857615235845e-05  2.0210517488766544e-05  2.0207796724427458e-05  2.0204805974181311e-05  2.0201735128198802e-05  2.0198838220456321e-05  2.0196386151210767e-05  2.0194585505516866e-05  2.0193494610561578e-05  2.0192966708637025e-05  2.0192653244585407e-05  2.0192189083089612e-05  2.0191454819724424e-05  2.0190577318560421e-05  2.0189736682079236e-05  2.0189042460936049e-05  2.0188524665117081e-05  2.0188165312972177e-05  2.0187928704291568e-05  2.0187779011000135e-05  2.0187687267821966e-05  2.0187632518598965e-05  2.0187600602360826e-05  2.0187582392352834e-05  2.0187572217874458e-05  2.0187566666873332e-05  2.0187563756324313e-05  2.0187562396992188e-05  4.0384476603754684e-05  4.0384473215556325e-05  2.0187560188127566e-05  2.0187560188156050e-05  2.0187560188218307e-05  2.0187560188345040e-05  2.0187560188596609e-05  2.0187560189088342e-05  2.0187560190036267e-05  2.0187560191836754e-05  2.0187560195200932e-05  2.0187560201372532e-05  2.0187560212462721e-05  2.0187560231932488e-05  2.0187560265226853e-05  2.0187560320499917e-05  2.0187560409252791e-05  2.0187560546550232e-05  2.0187560750363588e-05  2.0187561039692370e-05  2.0187561431701695e-05  2.0187561939307967e-05  2.0187562572052973e-05  2.0187563343502176e-05  2.0187564286503122e-05  2.0187565474051666e-05  2.0187567040610391e-05  2.0187569197795256e-05  2.0187572239571539e-05  2.0187576535885695e-05  2.0187582519548777e-05  2.0187590676325683e-05  2.0187601549155277e-05  2.0187615763842837e-05  2.0187634078282008e-05  2.0187657453806455e-05  2.0187687147264922e-05  2.0187724825099241e-05  2.0187772704926897e-05  2.0187833735569781e-05  2.0187911833118656e-05  2.0188012198219320e-05  2.0188141747682680e-05  2.0188309701465611e-05  2.0188528376240131e-05  2.0188814253601624e-05  2.0189189419332974e-05  2.0189683516934237e-05  2.0190336417899843e-05  2.0191201832296709e-05  2.0192351970913958e-05  2.0193882974076980e-05  2.0195919820934679e-05  2.0198617430180942e-05  2.0202152042893508e-05  2.0206695475727754e-05  2.0212367023033499e-05  2.0219165417476707e-05  2.0226894774553573e-05  2.0235114117901986e-05  2.0243159103371651e-05  2.0250280909012198e-05  2.0255874082413201e-05  2.0259664924359893e-05  2.0261744171745390e-05  2.0262447217682141e-05  2.0262178333026447e-05  2.0261270954464070e-05  2.0259926794917341e-05  2.0258213104865011e-05  2.0256075166574497e-05  2.0253361967880464e-05  2.0249877949443230e-05  2.0245450738740379e-05  2.0240002829340338e-05  2.0233608396151757e-05  2.0226529035855555e-05  2.0219229559117443e-05  2.0212353283330987e-05  2.0206608423348323e-05  2.0202545063805909e-05  2.0200330036426173e-05  2.0199580365484235e-05  2.0199272325763117e-05  2.0198313112088180e-05  2.0196471687929598e-05  2.0194266501166648e-05  2.0192241475568785e-05  2.0190647778535491e-05  2.0189511253131226e-05  2.0188752796254001e-05  2.0188269757259757e-05  2.0187972681914310e-05  2.0187795029239208e-05  2.0187691326444057e-05  2.0187632103350424e-05  2.0187598972723771e-05  2.0187580812263331e-05  2.0187571084367301e-05  2.0187566067545379e-05  2.0187563752106997e-05  4.0384478644029859e-05  4.0384473215594326e-05  2.0187560188151093e-05  2.0187560188199198e-05  2.0187560188305616e-05  2.0187560188525238e-05  2.0187560188967840e-05  2.0187560189847107e-05  2.0187560191571270e-05  2.0187560194905361e-05  2.0187560201252884e-05  2.0187560213126619e-05  2.0187560234898242e-05  2.0187560273921280e-05  2.0187560342076899e-05  2.0187560457649028e-05  2.0187560647138627e-05  2.0187560946168850e-05  2.0187561398169490e-05  2.0187562049538477e-05  2.0187562941290434e-05  2.0187564100515575e-05  2.0187565539499696e-05  2.0187567272318849e-05  2.0187569353325196e-05  2.0187571931104139e-05  2.0187575303606683e-05  2.0187579958069103e-05  2.0187586582080460e-05  2.0187596041848841e-05  2.0187609340500168e-05  2.0187627584241684e-05  2.0187651986087415e-05  2.0187683925003089e-05  2.0187725062417270e-05  2.0187777508788673e-05  2.0187844034120412e-05  2.0187928323944336e-05  2.0188035292486385e-05  2.0188171477340306e-05  2.0188345555594969e-05  2.0188569039414402e-05  2.0188857227220632e-05  2.0189230502241188e-05  2.0189716089040782e-05  2.0190350413157036e-05  2.0191182270640296e-05  2.0192277136565920e-05  2.0193723141108661e-05  2.0195639399568481e-05  2.0198187292676748e-05  2.0201584696824708e-05  2.0206121137405932e-05  2.0212166592097450e-05  2.0220158656461249e-05  2.0230546743259652e-05  2.0243675665712300e-05  2.0259610380601728e-05  2.0277930602642651e-05  2.0297564103523203e-05  2.0316801228785891e-05  2.0333665049117034e-05  2.0346583550673987e-05  2.0354937910177253e-05  2.0359112598316439e-05  2.0360098431823925e-05  2.0358983154926849e-05  2.0356590322694440e-05  2.0353370942208526e-05  2.0349447206972010e-05  2.0344645976564209e-05  2.0338548908100187e-05  2.0330626427917846e-05  2.0320409811734385e-05  2.0307676012994430e-05  2.0292582586522821e-05  2.0275746893746366e-05  2.0258301289143118e-05  2.0241876146592409e-05  2.0228337189990610e-05  2.0219150937346718e-05  2.0214804092781891e-05  2.0214381089550060e-05  2.0214845896151183e-05  2.0212800908995881e-05  2.0207964111126567e-05  2.0202334165352945e-05  2.0197480101477660e-05  2.0193877234627778e-05  2.0191432858537696e-05  2.0189866837915246e-05  2.0188901792358077e-05  2.0188324127555999e-05  2.0187986639924459e-05  2.0187793776184300e-05  2.0187685848160947e-05  2.0187626663569196e-05  2.0187594855796347e-05  2.0187578141563749e-05  2.0187569671586977e-05  2.0187565811818204e-05  4.0384481720621453e-05  4.0384473215652785e-05  2.0187560188187685e-05  2.0187560188267327e-05  2.0187560188445583e-05  2.0187560188818579e-05  2.0187560189581827e-05  2.0187560191123217e-05  2.0187560194198993e-05  2.0187560200257478e-05  2.0187560212018046e-05  2.0187560234470429e-05  2.0187560276524853e-05  2.0187560353586769e-05  2.0187560491275820e-05  2.0187560730220206e-05  2.0187561131146568e-05  2.0187561778214271e-05  2.0187562776943985e-05  2.0187564242319854e-05  2.0187566275230336e-05  2.0187568934354823e-05  2.01875722251