<?xml version="1.0"?>
<VTKFile type="UnstructuredGrid"  version="0.1"  >
<UnstructuredGrid>
<Piece  NumberOfPoints="5151" NumberOfCells="10000">
<Points>
<DataArray  type="Float64"  NumberOfComponents="3"  format="ascii">0 0 0  0.02 0 0  0.04 0 0  0.06 0 0  0.08 0 0  0.1 0 0  0.12 0 0  0.14 0 0  0.16 0 0  0.18 0 0  0.2 0 0  0.22 0 0  0.24 0 0  0.26 0 0  0.28 0 0  0.3 0 0  0.32 0 0  0.34 0 0  0.36 0 0  0.38 0 0  0.4 0 0  0.42 0 0  0.44 0 0  0.46 0 0  0.48 0 0  0.5 0 0  0.52 0 0  0.54 0 0  0.5600000000000001 0 0  0.58 0 0  0.6 0 0  0.62 0 0  0.64 0 0  0.66 0 0  0.68 0 0  0.7 0 0  0.72 0 0  0.74 0 0  0.76 0 0  0.78 0 0  0.8 0 0  0.82 0 0  0.84 0 0  0.86 0 0  0.88 0 0  0.9 0 0  0.92 0 0  0.9399999999999999 0 0  0.96 0 0  0.98 0 0  1 0 0  1.02 0 0  1.04 0 0  1.06 0 0  1.08 0 0  1.1 0 0  1.12 0 0  1.14 0 0  1.16 0 0  1.18 0 0  1.2 0 0  1.22 0 0  1.24 0 0  1.26 0 0  1.28 0 0  1.3 0 0  1.32 0 0  1.34 0 0  1.36 0 0  1.38 0 0  1.4 0 0  1.42 0 0  1.44 0 0  1.46 0 0  1.48 0 0  1.5 0 0  1.52 0 0  1.54 0 0  1.56 0 0  1.58 0 0  1.6 0 0  1.62 0 0  1.64 0 0  1.66 0 0  1.68 0 0  1.7 0 0  1.72 0 0  1.74 0 0  1.76 0 0  1.78 0 0  1.8 0 0  1.82 0 0  1.84 0 0  1.86 0 0  1.88 0 0  1.9 0 0  1.92 0 0  1.94 0 0  1.96 0 0  1.98 0 0  2 0 0  0 0.02 0  0.02 0.02 0  0.04 0.02 0  0.06 0.02 0  0.08 0.02 0  0.1 0.02 0  0.12 0.02 0  0.14 0.02 0  0.16 0.02 0  0.18 0.02 0  0.2 0.02 0  0.22 0.02 0  0.24 0.02 0  0.26 0.02 0  0.28 0.02 0  0.3 0.02 0  0.32 0.02 0  0.34 0.02 0  0.36 0.02 0  0.38 0.02 0  0.4 0.02 0  0.42 0.02 0  0.44 0.02 0  0.46 0.02 0  0.48 0.02 0  0.5 0.02 0  0.52 0.02 0  0.54 0.02 0  0.5600000000000001 0.02 0  0.58 0.02 0  0.6 0.02 0  0.62 0.02 0  0.64 0.02 0  0.66 0.02 0  0.68 0.02 0  0.7 0.02 0  0.72 0.02 0  0.74 0.02 0  0.76 0.02 0  0.78 0.02 0  0.8 0.02 0  0.82 0.02 0  0.84 0.02 0  0.86 0.02 0  0.88 0.02 0  0.9 0.02 0  0.92 0.02 0  0.9399999999999999 0.02 0  0.96 0.02 0  0.98 0.02 0  1 0.02 0  1.02 0.02 0  1.04 0.02 0  1.06 0.02 0  1.08 0.02 0  1.1 0.02 0  1.12 0.02 0  1.14 0.02 0  1.16 0.02 0  1.18 0.02 0  1.2 0.02 0  1.22 0.02 0  1.24 0.02 0  1.26 0.02 0  1.28 0.02 0  1.3 0.02 0  1.32 0.02 0  1.34 0.02 0  1.36 0.02 0  1.38 0.02 0  1.4 0.02 0  1.42 0.02 0  1.44 0.02 0  1.46 0.02 0  1.48 0.02 0  1.5 0.02 0  1.52 0.02 0  1.54 0.02 0  1.56 0.02 0  1.58 0.02 0  1.6 0.02 0  1.62 0.02 0  1.64 0.02 0  1.66 0.02 0  1.68 0.02 0  1.7 0.02 0  1.72 0.02 0  1.74 0.02 0  1.76 0.02 0  1.78 0.02 0  1.8 0.02 0  1.82 0.02 0  1.84 0.02 0  1.86 0.02 0  1.88 0.02 0  1.9 0.02 0  1.92 0.02 0  1.94 0.02 0  1.96 0.02 0  1.98 0.02 0  2 0.02 0  0 0.04 0  0.02 0.04 0  0.04 0.04 0  0.06 0.04 0  0.08 0.04 0  0.1 0.04 0  0.12 0.04 0  0.14 0.04 0  0.16 0.04 0  0.18 0.04 0  0.2 0.04 0  0.22 0.04 0  0.24 0.04 0  0.26 0.04 0  0.28 0.04 0  0.3 0.04 0  0.32 0.04 0  0.34 0.04 0  0.36 0.04 0  0.38 0.04 0  0.4 0.04 0  0.42 0.04 0  0.44 0.04 0  0.46 0.04 0  0.48 0.04 0  0.5 0.04 0  0.52 0.04 0  0.54 0.04 0  0.5600000000000001 0.04 0  0.58 0.04 0  0.6 0.04 0  0.62 0.04 0  0.64 0.04 0  0.66 0.04 0  0.68 0.04 0  0.7 0.04 0  0.72 0.04 0  0.74 0.04 0  0.76 0.04 0  0.78 0.04 0  0.8 0.04 0  0.82 0.04 0  0.84 0.04 0  0.86 0.04 0  0.88 0.04 0  0.9 0.04 0  0.92 0.04 0  0.9399999999999999 0.04 0  0.96 0.04 0  0.98 0.04 0  1 0.04 0  1.02 0.04 0  1.04 0.04 0  1.06 0.04 0  1.08 0.04 0  1.1 0.04 0  1.12 0.04 0  1.14 0.04 0  1.16 0.04 0  1.18 0.04 0  1.2 0.04 0  1.22 0.04 0  1.24 0.04 0  1.26 0.04 0  1.28 0.04 0  1.3 0.04 0  1.32 0.04 0  1.34 0.04 0  1.36 0.04 0  1.38 0.04 0  1.4 0.04 0  1.42 0.04 0  1.44 0.04 0  1.46 0.04 0  1.48 0.04 0  1.5 0.04 0  1.52 0.04 0  1.54 0.04 0  1.56 0.04 0  1.58 0.04 0  1.6 0.04 0  1.62 0.04 0  1.64 0.04 0  1.66 0.04 0  1.68 0.04 0  1.7 0.04 0  1.72 0.04 0  1.74 0.04 0  1.76 0.04 0  1.78 0.04 0  1.8 0.04 0  1.82 0.04 0  1.84 0.04 0  1.86 0.04 0  1.88 0.04 0  1.9 0.04 0  1.92 0.04 0  1.94 0.04 0  1.96 0.04 0  1.98 0.04 0  2 0.04 0  0 0.06 0  0.02 0.06 0  0.04 0.06 0  0.06 0.06 0  0.08 0.06 0  0.1 0.06 0  0.12 0.06 0  0.14 0.06 0  0.16 0.06 0  0.18 0.06 0  0.2 0.06 0  0.22 0.06 0  0.24 0.06 0  0.26 0.06 0  0.28 0.06 0  0.3 0.06 0  0.32 0.06 0  0.34 0.06 0  0.36 0.06 0  0.38 0.06 0  0.4 0.06 0  0.42 0.06 0  0.44 0.06 0  0.46 0.06 0  0.48 0.06 0  0.5 0.06 0  0.52 0.06 0  0.54 0.06 0  0.5600000000000001 0.06 0  0.58 0.06 0  0.6 0.06 0  0.62 0.06 0  0.64 0.06 0  0.66 0.06 0  0.68 0.06 0  0.7 0.06 0  0.72 0.06 0  0.74 0.06 0  0.76 0.06 0  0.78 0.06 0  0.8 0.06 0  0.82 0.06 0  0.84 0.06 0  0.86 0.06 0  0.88 0.06 0  0.9 0.06 0  0.92 0.06 0  0.9399999999999999 0.06 0  0.96 0.06 0  0.98 0.06 0  1 0.06 0  1.02 0.06 0  1.04 0.06 0  1.06 0.06 0  1.08 0.06 0  1.1 0.06 0  1.12 0.06 0  1.14 0.06 0  1.16 0.06 0  1.18 0.06 0  1.2 0.06 0  1.22 0.06 0  1.24 0.06 0  1.26 0.06 0  1.28 0.06 0  1.3 0.06 0  1.32 0.06 0  1.34 0.06 0  1.36 0.06 0  1.38 0.06 0  1.4 0.06 0  1.42 0.06 0  1.44 0.06 0  1.46 0.06 0  1.48 0.06 0  1.5 0.06 0  1.52 0.06 0  1.54 0.06 0  1.56 0.06 0  1.58 0.06 0  1.6 0.06 0  1.62 0.06 0  1.64 0.06 0  1.66 0.06 0  1.68 0.06 0  1.7 0.06 0  1.72 0.06 0  1.74 0.06 0  1.76 0.06 0  1.78 0.06 0  1.8 0.06 0  1.82 0.06 0  1.84 0.06 0  1.86 0.06 0  1.88 0.06 0  1.9 0.06 0  1.92 0.06 0  1.94 0.06 0  1.96 0.06 0  1.98 0.06 0  2 0.06 0  0 0.08 0  0.02 0.08 0  0.04 0.08 0  0.06 0.08 0  0.08 0.08 0  0.1 0.08 0  0.12 0.08 0  0.14 0.08 0  0.16 0.08 0  0.18 0.08 0  0.2 0.08 0  0.22 0.08 0  0.24 0.08 0  0.26 0.08 0  0.28 0.08 0  0.3 0.08 0  0.32 0.08 0  0.34 0.08 0  0.36 0.08 0  0.38 0.08 0  0.4 0.08 0  0.42 0.08 0  0.44 0.08 0  0.46 0.08 0  0.48 0.08 0  0.5 0.08 0  0.52 0.08 0  0.54 0.08 0  0.5600000000000001 0.08 0  0.58 0.08 0  0.6 0.08 0  0.62 0.08 0  0.64 0.08 0  0.66 0.08 0  0.68 0.08 0  0.7 0.08 0  0.72 0.08 0  0.74 0.08 0  0.76 0.08 0  0.78 0.08 0  0.8 0.08 0  0.82 0.08 0  0.84 0.08 0  0.86 0.08 0  0.88 0.08 0  0.9 0.08 0  0.92 0.08 0  0.9399999999999999 0.08 0  0.96 0.08 0  0.98 0.08 0  1 0.08 0  1.02 0.08 0  1.04 0.08 0  1.06 0.08 0  1.08 0.08 0  1.1 0.08 0  1.12 0.08 0  1.14 0.08 0  1.16 0.08 0  1.18 0.08 0  1.2 0.08 0  1.22 0.08 0  1.24 0.08 0  1.26 0.08 0  1.28 0.08 0  1.3 0.08 0  1.32 0.08 0  1.34 0.08 0  1.36 0.08 0  1.38 0.08 0  1.4 0.08 0  1.42 0.08 0  1.44 0.08 0  1.46 0.08 0  1.48 0.08 0  1.5 0.08 0  1.52 0.08 0  1.54 0.08 0  1.56 0.08 0  1.58 0.08 0  1.6 0.08 0  1.62 0.08 0  1.64 0.08 0  1.66 0.08 0  1.68 0.08 0  1.7 0.08 0  1.72 0.08 0  1.74 0.08 0  1.76 0.08 0  1.78 0.08 0  1.8 0.08 0  1.82 0.08 0  1.84 0.08 0  1.86 0.08 0  1.88 0.08 0  1.9 0.08 0  1.92 0.08 0  1.94 0.08 0  1.96 0.08 0  1.98 0.08 0  2 0.08 0  0 0.1 0  0.02 0.1 0  0.04 0.1 0  0.06 0.1 0  0.08 0.1 0  0.1 0.1 0  0.12 0.1 0  0.14 0.1 0  0.16 0.1 0  0.18 0.1 0  0.2 0.1 0  0.22 0.1 0  0.24 0.1 0  0.26 0.1 0  0.28 0.1 0  0.3 0.1 0  0.32 0.1 0  0.34 0.1 0  0.36 0.1 0  0.38 0.1 0  0.4 0.1 0  0.42 0.1 0  0.44 0.1 0  0.46 0.1 0  0.48 0.1 0  0.5 0.1 0  0.52 0.1 0  0.54 0.1 0  0.5600000000000001 0.1 0  0.58 0.1 0  0.6 0.1 0  0.62 0.1 0  0.64 0.1 0  0.66 0.1 0  0.68 0.1 0  0.7 0.1 0  0.72 0.1 0  0.74 0.1 0  0.76 0.1 0  0.78 0.1 0  0.8 0.1 0  0.82 0.1 0  0.84 0.1 0  0.86 0.1 0  0.88 0.1 0  0.9 0.1 0  0.92 0.1 0  0.9399999999999999 0.1 0  0.96 0.1 0  0.98 0.1 0  1 0.1 0  1.02 0.1 0  1.04 0.1 0  1.06 0.1 0  1.08 0.1 0  1.1 0.1 0  1.12 0.1 0  1.14 0.1 0  1.16 0.1 0  1.18 0.1 0  1.2 0.1 0  1.22 0.1 0  1.24 0.1 0  1.26 0.1 0  1.28 0.1 0  1.3 0.1 0  1.32 0.1 0  1.34 0.1 0  1.36 0.1 0  1.38 0.1 0  1.4 0.1 0  1.42 0.1 0  1.44 0.1 0  1.46 0.1 0  1.48 0.1 0  1.5 0.1 0  1.52 0.1 0  1.54 0.1 0  1.56 0.1 0  1.58 0.1 0  1.6 0.1 0  1.62 0.1 0  1.64 0.1 0  1.66 0.1 0  1.68 0.1 0  1.7 0.1 0  1.72 0.1 0  1.74 0.1 0  1.76 0.1 0  1.78 0.1 0  1.8 0.1 0  1.82 0.1 0  1.84 0.1 0  1.86 0.1 0  1.88 0.1 0  1.9 0.1 0  1.92 0.1 0  1.94 0.1 0  1.96 0.1 0  1.98 0.1 0  2 0.1 0  0 0.12 0  0.02 0.12 0  0.04 0.12 0  0.06 0.12 0  0.08 0.12 0  0.1 0.12 0  0.12 0.12 0  0.14 0.12 0  0.16 0.12 0  0.18 0.12 0  0.2 0.12 0  0.22 0.12 0  0.24 0.12 0  0.26 0.12 0  0.28 0.12 0  0.3 0.12 0  0.32 0.12 0  0.34 0.12 0  0.36 0.12 0  0.38 0.12 0  0.4 0.12 0  0.42 0.12 0  0.44 0.12 0  0.46 0.12 0  0.48 0.12 0  0.5 0.12 0  0.52 0.12 0  0.54 0.12 0  0.5600000000000001 0.12 0  0.58 0.12 0  0.6 0.12 0  0.62 0.12 0  0.64 0.12 0  0.66 0.12 0  0.68 0.12 0  0.7 0.12 0  0.72 0.12 0  0.74 0.12 0  0.76 0.12 0  0.78 0.12 0  0.8 0.12 0  0.82 0.12 0  0.84 0.12 0  0.86 0.12 0  0.88 0.12 0  0.9 0.12 0  0.92 0.12 0  0.9399999999999999 0.12 0  0.96 0.12 0  0.98 0.12 0  1 0.12 0  1.02 0.12 0  1.04 0.12 0  1.06 0.12 0  1.08 0.12 0  1.1 0.12 0  1.12 0.12 0  1.14 0.12 0  1.16 0.12 0  1.18 0.12 0  1.2 0.12 0  1.22 0.12 0  1.24 0.12 0  1.26 0.12 0  1.28 0.12 0  1.3 0.12 0  1.32 0.12 0  1.34 0.12 0  1.36 0.12 0  1.38 0.12 0  1.4 0.12 0  1.42 0.12 0  1.44 0.12 0  1.46 0.12 0  1.48 0.12 0  1.5 0.12 0  1.52 0.12 0  1.54 0.12 0  1.56 0.12 0  1.58 0.12 0  1.6 0.12 0  1.62 0.12 0  1.64 0.12 0  1.66 0.12 0  1.68 0.12 0  1.7 0.12 0  1.72 0.12 0  1.74 0.12 0  1.76 0.12 0  1.78 0.12 0  1.8 0.12 0  1.82 0.12 0  1.84 0.12 0  1.86 0.12 0  1.88 0.12 0  1.9 0.12 0  1.92 0.12 0  1.94 0.12 0  1.96 0.12 0  1.98 0.12 0  2 0.12 0  0 0.14 0  0.02 0.14 0  0.04 0.14 0  0.06 0.14 0  0.08 0.14 0  0.1 0.14 0  0.12 0.14 0  0.14 0.14 0  0.16 0.14 0  0.18 0.14 0  0.2 0.14 0  0.22 0.14 0  0.24 0.14 0  0.26 0.14 0  0.28 0.14 0  0.3 0.14 0  0.32 0.14 0  0.34 0.14 0  0.36 0.14 0  0.38 0.14 0  0.4 0.14 0  0.42 0.14 0  0.44 0.14 0  0.46 0.14 0  0.48 0.14 0  0.5 0.14 0  0.52 0.14 0  0.54 0.14 0  0.5600000000000001 0.14 0  0.58 0.14 0  0.6 0.14 0  0.62 0.14 0  0.64 0.14 0  0.66 0.14 0  0.68 0.14 0  0.7 0.14 0  0.72 0.14 0  0.74 0.14 0  0.76 0.14 0  0.78 0.14 0  0.8 0.14 0  0.82 0.14 0  0.84 0.14 0  0.86 0.14 0  0.88 0.14 0  0.9 0.14 0  0.92 0.14 0  0.9399999999999999 0.14 0  0.96 0.14 0  0.98 0.14 0  1 0.14 0  1.02 0.14 0  1.04 0.14 0  1.06 0.14 0  1.08 0.14 0  1.1 0.14 0  1.12 0.14 0  1.14 0.14 0  1.16 0.14 0  1.18 0.14 0  1.2 0.14 0  1.22 0.14 0  1.24 0.14 0  1.26 0.14 0  1.28 0.14 0  1.3 0.14 0  1.32 0.14 0  1.34 0.14 0  1.36 0.14 0  1.38 0.14 0  1.4 0.14 0  1.42 0.14 0  1.44 0.14 0  1.46 0.14 0  1.48 0.14 0  1
[...]
<PointData  Scalars="sols[i]"> 
<DataArray  type="Float64"  Name="sols[i]"  format="ascii">6.0579747014006443e-05  4.0384163012133534e-05  4.0384163012137187e-05  4.0384163012144512e-05  4.0384163012158315e-05  4.0384163012183489e-05  4.0384163012228416e-05  4.0384163012307474e-05  4.0384163012443941e-05  4.0384163012675202e-05  4.0384163013059497e-05  4.0384163013684303e-05  4.0384163014676822e-05  4.0384163016214973e-05  4.0384163018536805e-05  4.0384163021946065e-05  4.0384163026812642e-05  4.0384163033566734e-05  4.0384163042693656e-05  4.0384163054744042e-05  4.0384163070380677e-05  4.0384163090488852e-05  4.0384163116371089e-05  4.0384163150024454e-05  4.0384163194475103e-05  4.0384163254121367e-05  4.0384163335029229e-05  4.0384163445147138e-05  4.0384163594450417e-05  4.0384163795081493e-05  4.0384164061606861e-05  4.0384164411531886e-05  4.0384164866218887e-05  4.0384165452330383e-05  4.0384166203904018e-05  4.0384167165173446e-05  4.0384168394298971e-05  4.0384169968253114e-05  4.0384171989240969e-05  4.0384174593197767e-05  4.0384177961107878e-05  4.0384182334122022e-05  4.0384188033713042e-05  4.0384195488368696e-05  4.0384205268518842e-05  4.0384218131310295e-05  4.0384235076059569e-05  4.0384257408958066e-05  4.0384286810753822e-05  4.0384325392444941e-05  4.0384375710932029e-05  4.0384440700583561e-05  4.0384523463477634e-05  4.0384626862026410e-05  4.0384752887894991e-05  4.0384901852201545e-05  4.0385071550282376e-05  4.0385256669860022e-05  4.0385448774231508e-05  4.0385637121828603e-05  4.0385810322300783e-05  4.0385958430189482e-05  4.0386074764065059e-05  4.0386156775068373e-05  4.0386205704274106e-05  4.0386225295007255e-05  4.0386220141958593e-05  4.0386194246391991e-05  4.0386150116618290e-05  4.0386088506103619e-05  4.0386008735756743e-05  4.0385909475706592e-05  4.0385789806392434e-05  4.0385650330952671e-05  4.0385494082905252e-05  4.0385326974096575e-05  4.0385157553296033e-05  4.0384995914445731e-05  4.0384851776349938e-05  4.0384732104930964e-05  4.0384639062076828e-05  4.0384569267849356e-05  4.0384515132227962e-05  4.0384468133185304e-05  4.0384422379619682e-05  4.0384376201977432e-05  4.0384331201135187e-05  4.0384290136358743e-05  4.0384255217296568e-05  4.0384227396491717e-05  4.0384206456232737e-05  4.0384191443659860e-05  4.0384181118538649e-05  4.0384174265826702e-05  4.0384169856549166e-05  4.0384167097147762e-05  4.0384165415853553e-05  4.0384164423107642e-05  4.0384163868452043e-05  4.0384163605510458e-05  1.2115883591092366e-04  4.0384163012133263e-05  2.0187534077181746e-05  2.0187534077183732e-05  2.0187534077187838e-05  2.0187534077195641e-05  2.0187534077210037e-05  2.0187534077236007e-05  2.0187534077282143e-05  2.0187534077362686e-05  2.0187534077500691e-05  2.0187534077732602e-05  2.0187534078114048e-05  2.0187534078727012e-05  2.0187534079687805e-05  2.0187534081154168e-05  2.0187534083329728e-05  2.0187534086464113e-05  2.0187534090847891e-05  2.0187534096805247e-05  2.0187534104694508e-05  2.0187534114932050e-05  2.0187534128059942e-05  2.0187534144874732e-05  2.0187534166619423e-05  2.0187534195220466e-05  2.0187534233533518e-05  2.0187534285554155e-05  2.0187534356563628e-05  2.0187534453212404e-05  2.0187534583585910e-05  2.0187534757337561e-05  2.0187534985992479e-05  2.0187535283522966e-05  2.0187535667279496e-05  2.0187536159343175e-05  2.0187536788368053e-05  2.0187537592011189e-05  2.0187538620104747e-05  2.0187539938811457e-05  2.0187541636117283e-05  2.0187543829149629e-05  2.0187546673968587e-05  2.0187550378662189e-05  2.0187555220775180e-05  2.0187561570290000e-05  2.0187569919448513e-05  2.0187580920397075e-05  2.0187595430449963e-05  2.0187614561875722e-05  2.0187639727484421e-05  2.0187672664142616e-05  2.0187715404102872e-05  2.0187770152083571e-05  2.0187839022376130e-05  2.0187923606885266e-05  2.0188024392857597e-05  2.0188140128931263e-05  2.0188267331516974e-05  2.0188400187897046e-05  2.0188531082998197e-05  2.0188651791930806e-05  2.0188755059471016e-05  2.0188836009348487e-05  2.0188892832254276e-05  2.0188926534498796e-05  2.0188939959416634e-05  2.0188936543169697e-05  2.0188919243535201e-05  2.0188889884618478e-05  2.0188848966108534e-05  2.0188795889147546e-05  2.0188729513321957e-05  2.0188648922664448e-05  2.0188554242792751e-05  2.0188447329295825e-05  2.0188332147606748e-05  2.0188214675456160e-05  2.0188102186706688e-05  2.0188001884017099e-05  2.0187919105830101e-05  2.0187855678081784e-05  2.0187809183469438e-05  2.0187773830326310e-05  2.0187743013717554e-05  2.0187712259011734e-05  2.0187680502978039e-05  2.0187649212283567e-05  2.0187620622743811e-05  2.0187596424058468e-05  2.0187577290745543e-05  2.0187563016581302e-05  2.0187552876228701e-05  2.0187545963886003e-05  2.0187541414717944e-05  2.0187538510500205e-05  2.0187536705967289e-05  2.0187535613223653e-05  2.0187534970518441e-05  2.0187534610236870e-05  2.0187534432897230e-05  4.0384163597900619e-05  4.0384163012135987e-05  2.0187534077183315e-05  2.0187534077186435e-05  2.0187534077192941e-05  2.0187534077205480e-05  2.0187534077228929e-05  2.0187534077271932e-05  2.0187534077349547e-05  2.0187534077487274e-05  2.0187534077727273e-05  2.0187534078137372e-05  2.0187534078823242e-05  2.0187534079943626e-05  2.0187534081727721e-05  2.0187534084491346e-05  2.0187534088647218e-05  2.0187534094704269e-05  2.0187534103252038e-05  2.0187534114934672e-05  2.0187534130434396e-05  2.0187534150501135e-05  2.0187534176078376e-05  2.0187534208569438e-05  2.0187534250252688e-05  2.0187534304801959e-05  2.0187534377821119e-05  2.0187534477283830e-05  2.0187534613801445e-05  2.0187534800719926e-05  2.0187535054149263e-05  2.0187535393121935e-05  2.0187535840114794e-05  2.0187536422148740e-05  2.0187537172623516e-05  2.0187538133994470e-05  2.0187539361396134e-05  2.0187540927378134e-05  2.0187542928039317e-05  2.0187545491025629e-05  2.0187548786086413e-05  2.0187553039157250e-05  2.0187558551258639e-05  2.0187565723877319e-05  2.0187575092945679e-05  2.0187587374049408e-05  2.0187603521936523e-05  2.0187624807337516e-05  2.0187652912524612e-05  2.0187690042076744e-05  2.0187739034318370e-05  2.0187803439140283e-05  2.0187887498637184e-05  2.0187995933942492e-05  2.0188133422840017e-05  2.0188303678890930e-05  2.0188508145500264e-05  2.0188744506832578e-05  2.0189005455232253e-05  2.0189278347484479e-05  2.0189546363065961e-05  2.0189791340737736e-05  2.0189997603487343e-05  2.0190155293898734e-05  2.0190261791752723e-05  2.0190320768608291e-05  2.0190339593676179e-05  2.0190326346839426e-05  2.0190287477644244e-05  2.0190226543173887e-05  2.0190143979210073e-05  2.0190037730690684e-05  2.0189904562730711e-05  2.0189741800383061e-05  2.0189549160964684e-05  2.0189330294147348e-05  2.0189093659321665e-05  2.0188852380254464e-05  2.0188622705620958e-05  2.0188420876005153e-05  2.0188258826482965e-05  2.0188140103686692e-05  2.0188057920546198e-05  2.0187997251452304e-05  2.0187941761648447e-05  2.0187881806980434e-05  2.0187817017152163e-05  2.0187752705745181e-05  2.0187694834290699e-05  2.0187647108961730e-05  2.0187610496800667e-05  2.0187584015934142e-05  2.0187565760663922e-05  2.0187553664542468e-05  2.0187545911635401e-05  2.0187541082454526e-05  2.0187538149873136e-05  2.0187536411584962e-05  2.0187535409174158e-05  2.0187534857105117e-05  2.0187534589658167e-05  4.0384163826115615e-05  4.0384163012141097e-05  2.0187534077186341e-05  2.0187534077191687e-05  2.0187534077202976e-05  2.0187534077225040e-05  2.0187534077266944e-05  2.0187534077345047e-05  2.0187534077488396e-05  2.0187534077747185e-05  2.0187534078206056e-05  2.0187534079004046e-05  2.0187534080362165e-05  2.0187534082619434e-05  2.0187534086274906e-05  2.0187534092028814e-05  2.0187534100810577e-05  2.0187534113777771e-05  2.0187534132272105e-05  2.0187534157736267e-05  2.0187534191633882e-05  2.0187534235465472e-05  2.0187534291015593e-05  2.0187534360956872e-05  2.0187534449845337e-05  2.0187534565393580e-05  2.0187534719775187e-05  2.0187534930663819e-05  2.0187535221788918e-05  2.0187535622994476e-05  2.0187536170063722e-05  2.0187536904814168e-05  2.0187537876056508e-05  2.0187539141925662e-05  2.0187540773910323e-05  2.0187542862756858e-05  2.0187545526405897e-05  2.0187548920261836e-05  2.0187553250380027e-05  2.0187558790566890e-05  2.0187565904907396e-05  2.0187575077847242e-05  2.0187586954665446e-05  2.0187602396007807e-05  2.0187622551201788e-05  2.0187648956436554e-05  2.0187683665464408e-05  2.0187729421558563e-05  2.0187789877960245e-05  2.0187869865539965e-05  2.0187975683853333e-05  2.0188115346511368e-05  2.0188298637347192e-05  2.0188536738174465e-05  2.0188841114766260e-05  2.0189221379438835e-05  2.0189682082531778e-05  2.0190218864084406e-05  2.0190815046307475e-05  2.0191440356818793e-05  2.0192053602831286e-05  2.0192610048265158e-05  2.0193071685450756e-05  2.0193416082802237e-05  2.0193639675181715e-05  2.0193754501046796e-05  2.0193780818603189e-05  2.0193739281859899e-05  2.0193645358800062e-05  2.0193506726392720e-05  2.0193323110053539e-05  2.0193088029174900e-05  2.0192792109783180e-05  2.0192427401993252e-05  2.0191991903187882e-05  2.0191493361799829e-05  2.0190951539965861e-05  2.0190398133739781e-05  2.0189873296910958e-05  2.0189417869087351e-05  2.0189062067011594e-05  2.0188814307123956e-05  2.0188655227418360e-05  2.0188542504449387e-05  2.0188431248923294e-05  2.0188298509249553e-05  2.0188148755346315e-05  2.0188000048190405e-05  2.0187868897110602e-05  2.0187763773352430e-05  2.0187685583534088e-05  2.0187630735438750e-05  2.0187594008395330e-05  2.0187570324456930e-05  2.0187555522667707e-05  2.0187546517329498e-05  2.0187541168276893e-05  2.0187538062922242e-05  2.0187536306463399e-05  2.0187535355486225e-05  2.0187534900968064e-05  4.0384164298017782e-05  4.0384163012149960e-05  2.0187534077191643e-05  2.0187534077201011e-05  2.0187534077221021e-05  2.0187534077260669e-05  2.0187534077337082e-05  2.0187534077481813e-05  2.0187534077751816e-05  2.0187534078247517e-05  2.0187534079141720e-05  2.0187534080724062e-05  2.0187534083464789e-05  2.0187534088100570e-05  2.0187534095738497e-05  2.0187534107963069e-05  2.0187534126915350e-05  2.0187534155298513e-05  2.0187534196262666e-05  2.0187534253159173e-05  2.0187534329251297e-05  2.0187534427615462e-05  2.0187534551603880e-05  2.0187534706236626e-05  2.0187534900646097e-05  2.0187535151275946e-05  2.0187535485158217e-05  2.0187535942451973e-05  2.0187536577624602e-05  2.0187537459200746e-05  2.0187538668762297e-05  2.0187540300538015e-05  2.0187542463127374e-05  2.0187545284594762e-05  2.0187548921604760e-05  2.0187553572830670e-05  2.0187559496813830e-05  2.0187567034807873e-05  2.0187576639829651e-05  2.0187588914101318e-05  2.0187604658270514e-05  2.0187624937199379e-05  2.0187651168692641e-05  2.0187685243356898e-05  2.0187729686146207e-05  2.0187787873516040e-05  2.0187864324711099e-05  2.0187965090745413e-05  2.0188098266095948e-05  2.0188274635753365e-05  2.0188508426226932e-05  2.0188818028236499e-05  2.0189226372976529e-05  2.0189760372598208e-05  2.0190448577055541e-05  2.0191316186457788e-05  2.0192377081394740e-05  2.0193623751790285e-05  2.0195017758407618e-05  2.0196485239199453e-05  2.0197922923551964e-05  2.0199217677246858e-05  2.0200274865223768e-05  2.0201042502949374e-05  2.0201518861679159e-05  2.0201741503120033e-05  2.0201766033640805e-05  2.0201645446583264e-05  2.0201416957415879e-05  2.0201097014190530e-05  2.0200681844346409e-05  2.0200152102145874e-05  2.0199481265477585e-05  2.0198646482743724e-05  2.0197639898367848e-05  2.0196478119301177e-05  2.0195208055575554e-05  2.0193907527046765e-05  2.0192677680110398e-05  2.0191623636842742e-05  2.0190824216436158e-05  2.0190301011635398e-05  2.0189999691782517e-05  2.0189798826093899e-05  2.0189571271302594e-05  2.0189263030190394e-05  2.0188902524830702e-05  2.0188548353491622e-05  2.0188244661478157e-05  2.0188009196277349e-05  2.0187839788951075e-05  2.0187724606702455e-05  2.0187649648347268e-05  2.0187602546059080e-05  2.0187573796391858e-05  2.0187556683800689e-05  2.0187546725813424e-05  2.0187541056064963e-05  2.0187537906963971e-05  2.0187536229215875e-05  2.0187535436688288e-05  4.0384165113309545e-05  4.0384163012164678e-05  2.0187534077200561e-05  2.0187534077216898e-05  2.0187534077252199e-05  2.0187534077323096e-05  2.0187534077461772e-05  2.0187534077728611e-05  2.0187534078234595e-05  2.0187534079179382e-05  2.0187534080913712e-05  2.0187534084037926e-05  2.0187534089548380e-05  2.0187534099041200e-05  2.0187534114969492e-05  2.0187534140922480e-05  2.0187534181851586e-05  2.0187534244118049e-05  2.0187534335212614e-05  2.0187534463067714e-05  2.0187534635122091e-05  2.0187534857718819e-05  2.0187535136857863e-05  2.0187535481391936e-05  2.0187535909087254e-05  2.0187536454753559e-05  2.0187537178582657e-05  2.0187538172451304e-05  2.0187539562439082e-05  2.0187541507255379e-05  2.0187544194373970e-05  2.0187547837492122e-05  2.0187552679396333e-05  2.0187559003258316e-05  2.0187567153656469e-05  2.0187577567376075e-05  2.0187590813934097e-05  2.0187607646717186e-05  2.0187629067296967e-05  2.0187656407751018e-05  2.0187691438622759e-05  2.0187736513399004e-05  2.0187794763908455e-05  2.0187870364904790e-05  2.0187968891136384e-05  2.0188097797985853e-05  2.0188267068828533e-05  2.0188490089051499e-05  2.0188784821747488e-05  2.0189175350330826e-05  2.0189693775847480e-05  2.0190382245385092e-05  2.0191294441807528e-05  2.0192495115464102e-05  2.0194055394165539e-05  2.0196041308239850e-05  2.0198494086876758e-05  2.0201403851861080e-05  2.0204682931864768e-05  2.0208150585502994e-05  2.0211545503055765e-05  2.0214577883381860e-05  2.0217009211571924e-05  2.0218719371636209e-05  2.0219723456343989e-05  2.0220135360729965e-05  2.0220106492294163e-05  2.0219771524539837e-05  2.0219218604665400e-05  2.0218481670439166e-05  2.0217543969536109e-05  2.0216349788790856e-05  2.0214825643781215e-05  2.0212907575800844e-05  2.0210569595395025e-05  2.0207847008162204e-05  2.0204851134925450e-05  2.0201773118539222e-05  2.0198868780207150e-05  2.0196411082058836e-05  2.0194608317160760e-05  2.0193519321116815e-05  2.0192995835067991e-05  2.0192685497235540e-05  2.0192219171285097e-05  2.0191476876053644e-05  2.0190588322542858e-05  2.0189736852353604e-05  2.0189033800435818e-05  2.0188509595260738e-05  2.0188145939727246e-05  2.0187906593410836e-05  2.0187755223950324e-05  2.0187662482916136e-05  2.0187607152425587e-05  2.0187574903674493e-05  2.0187556506556842e-05  2.0187546228516596e-05  2.0187540621344632e-05  2.0187537681437803e-05  2.0187536308414709e-05  4.0384166434605245e-05  4.0384163012188388e-05  2.0187534077215106e-05  2.0187534077243200e-05  2.0187534077304620e-05  2.0187534077429659e-05  2.0187534077677898e-05  2.0187534078163200e-05  2.0187534079098921e-05  2.0187534080876670e-05  2.0187534084199401e-05  2.0187534090297221e-05  2.0187534101259654e-05  2.0187534120515169e-05  2.0187534153463307e-05  2.0187534208200738e-05  2.0187534296166631e-05  2.0187534432377186e-05  2.0187534634798247e-05  2.0187534922502172e-05  2.0187535312826569e-05  2.0187535818936324e-05  2.0187536450605649e-05  2.0187537221474701e-05  2.0187538164189639e-05  2.0187539351249902e-05  2.0187540916422570e-05  2.0187543070597347e-05  2.0187546107156632e-05  2.0187550395723615e-05  2.0187556369059708e-05  2.0187564513048474e-05  2.0187575370703849e-05  2.0187589567596425e-05  2.0187607860856175e-05  2.0187631210490636e-05  2.0187660871740231e-05  2.0187698509794000e-05  2.0187746342265762e-05  2.0187807320125880e-05  2.0187885364355745e-05  2.0187985683190015e-05  2.0188115202740370e-05  2.0188283151689989e-05  2.0188501850813463e-05  2.0188787774907916e-05  2.0189162983583744e-05  2.0189657065712379e-05  2.0190309804504687e-05  2.0191174794637373e-05  2.0192324132021749e-05  2.0193853898563736e-05  2.0195889156738952e-05  2.0198585150395368e-05  2.0202118757273652e-05  2.0206662707566930e-05  2.0212337304616694e-05  2.0219142102768602e-05  2.0226881520734689e-05  2.0235113951792665e-05  2.0243173046132666e-05  2.0250306715005344e-05  2.0255906237226722e-05  2.0259696532904620e-05  2.0261769929570180e-05  2.0262465767370632e-05  2.0262193290535342e-05  2.0261290393411054e-05  2.0259961021910814e-05  2.0258271309245105e-05  2.0256162369052039e-05  2.0253477659453970e-05  2.0250016647438024e-05  2.0245603706514148e-05  2.0240160002275978e-05  2.0233760013469342e-05  2.0226667006016848e-05  2.0219348828167548e-05  2.0212453282869233e-05  2.0206694033171702e-05  2.0202625916877845e-05  2.0200417561546161e-05  2.0199682384976803e-05  2.0199385328460431e-05  2.0198420893027911e-05  2.0196557345839298e-05  2.0194323166814896e-05  2.0192271586603683e-05  2.0190657575510416e-05  2.0189507100636560e-05  2.0188739704552690e-05  2.0188251191972093e-05  2.0187950866713416e-05  2.0187771326484591e-05  2.0187666546308089e-05  2.0187606717668969e-05  2.0187573251762999e-05  2.0187554908590461e-05  2.0187545083073247e-05  2.0187540015929748e-05  2.0187537677256798e-05  4.0384168495551108e-05  4.0384163012225874e-05  2.0187534077238304e-05  2.0187534077285755e-05  2.0187534077390723e-05  2.0187534077607367e-05  2.0187534078044002e-05  2.0187534078911523e-05  2.0187534080612962e-05  2.0187534083903813e-05  2.0187534090170732e-05  2.0187534101897629e-05  2.0187534123408817e-05  2.0187534161984069e-05  2.0187534229397290e-05  2.0187534343790543e-05  2.0187534531502331e-05  2.0187534828014255e-05  2.0187535276712960e-05  2.0187535924154757e-05  2.0187536811793213e-05  2.0187537967399023e-05  2.0187539403936483e-05  2.0187541135750706e-05  2.0187543216710121e-05  2.0187545794120550e-05  2.0187549164138712e-05  2.0187553812156983e-05  2.0187560424337045e-05  2.0187569866179858e-05  2.0187583140859099e-05  2.0187601355110485e-05  2.0187625722397783e-05  2.0187657621329593e-05  2.0187698711527531e-05  2.0187751100011050e-05  2.0187817552358591e-05  2.0187901750316868e-05  2.0188008607314054e-05  2.0188144665549793e-05  2.0188318613784594e-05  2.0188541983088557e-05  2.0188830096055489e-05  2.0189203360457976e-05  2.0189689016730802e-05  2.0190323482742906e-05  2.0191155501633526e-05  2.0192250424259413e-05  2.0193696165196316e-05  2.0195611539295781e-05  2.0198157600596485e-05  2.0201552004675763e-05  2.0206084379529862e-05  2.0212125410769428e-05  2.0220114239883103e-05  2.0230502612755229e-05  2.0243637986007860e-05  2.0259587561420942e-05  2.0277932154279854e-05  2.0297598410000286e-05  2.0316871673099440e-05  2.0333765921222187e-05  2.0346699613813359e-05  2.0355049911388096e-05  2.0359206024771210e-05  2.0360169652328391e-05  2.0359041853482102e-05  2.0356658197697144e-05  2.0353475635782258e-05  2.0349612901364736e-05  2.0344884993962899e-05  2.0338858614280024e-05  2.0330991586943276e-05  2.0320807713731713e-05  2.0308081473470436e-05  2.0292971657668762e-05  2.0276099726905316e-05  2.0258605253902845e-05  2.0242129780807276e-05  2.0228553482283816e-05  2.0219356059496619e-05  2.0215030373461842e-05  2.0214653545768413e-05  2.0215155571752114e-05  2.0213096776569120e-05  2.0208196835921362e-05  2.0202490172314672e-05  2.0197571806516531e-05  2.0193923262547995e-05  2.0191449362223223e-05  2.0189865307844220e-05  2.0188889619938660e-05  2.0188305809966187e-05  2.0187964828752457e-05  2.0187770005486383e-05  2.0187660993216459e-05  2.0187601217368982e-05  2.0187569092327619e-05  2.0187552211206037e-05  2.0187543656460401e-05  2.0187539757975438e-05  4.0384171603534712e-05  4.0384163012283534e-05  2.0187534077274402e-05  2.0187534077352942e-05  2.0187534077528752e-05  2.0187534077896618e-05  2.0187534078649421e-05  2.0187534080169848e-05  2.0187534083204167e-05  2.0187534089182062e-05  2.0187534100788863e-05  2.0187534122954255e-05  2.0187534164486493e-05  2.0187534240626315e-05  2.0187534376743676e-05  2.0187534613120156e-05  2.0187535010060300e-05  2.0187535651317330e-05  2.0187536642218684e-05  2.0187538098064359e-05  2.0187540120843438e-05  2.0187542771095913e-05  2.01875460562