<?xml version="1.0"?>
<VTKFile type="UnstructuredGrid"  version="0.1"  >
<UnstructuredGrid>
<Piece  NumberOfPoints="5151" NumberOfCells="10000">
<Points>
<DataArray  type="Float64"  NumberOfComponents="3"  format="ascii">0 0 0  0.02 0 0  0.04 0 0  0.06 0 0  0.08 0 0  0.1 0 0  0.12 0 0  0.14 0 0  0.16 0 0  0.18 0 0  0.2 0 0  0.22 0 0  0.24 0 0  0.26 0 0  0.28 0 0  0.3 0 0  0.32 0 0  0.34 0 0  0.36 0 0  0.38 0 0  0.4 0 0  0.42 0 0  0.44 0 0  0.46 0 0  0.48 0 0  0.5 0 0  0.52 0 0  0.54 0 0  0.5600000000000001 0 0  0.58 0 0  0.6 0 0  0.62 0 0  0.64 0 0  0.66 0 0  0.68 0 0  0.7 0 0  0.72 0 0  0.74 0 0  0.76 0 0  0.78 0 0  0.8 0 0  0.82 0 0  0.84 0 0  0.86 0 0  0.88 0 0  0.9 0 0  0.92 0 0  0.9399999999999999 0 0  0.96 0 0  0.98 0 0  1 0 0  1.02 0 0  1.04 0 0  1.06 0 0  1.08 0 0  1.1 0 0  1.12 0 0  1.14 0 0  1.16 0 0  1.18 0 0  1.2 0 0  1.22 0 0  1.24 0 0  1.26 0 0  1.28 0 0  1.3 0 0  1.32 0 0  1.34 0 0  1.36 0 0  1.38 0 0  1.4 0 0  1.42 0 0  1.44 0 0  1.46 0 0  1.48 0 0  1.5 0 0  1.52 0 0  1.54 0 0  1.56 0 0  1.58 0 0  1.6 0 0  1.62 0 0  1.64 0 0  1.66 0 0  1.68 0 0  1.7 0 0  1.72 0 0  1.74 0 0  1.76 0 0  1.78 0 0  1.8 0 0  1.82 0 0  1.84 0 0  1.86 0 0  1.88 0 0  1.9 0 0  1.92 0 0  1.94 0 0  1.96 0 0  1.98 0 0  2 0 0  0 0.02 0  0.02 0.02 0  0.04 0.02 0  0.06 0.02 0  0.08 0.02 0  0.1 0.02 0  0.12 0.02 0  0.14 0.02 0  0.16 0.02 0  0.18 0.02 0  0.2 0.02 0  0.22 0.02 0  0.24 0.02 0  0.26 0.02 0  0.28 0.02 0  0.3 0.02 0  0.32 0.02 0  0.34 0.02 0  0.36 0.02 0  0.38 0.02 0  0.4 0.02 0  0.42 0.02 0  0.44 0.02 0  0.46 0.02 0  0.48 0.02 0  0.5 0.02 0  0.52 0.02 0  0.54 0.02 0  0.5600000000000001 0.02 0  0.58 0.02 0  0.6 0.02 0  0.62 0.02 0  0.64 0.02 0  0.66 0.02 0  0.68 0.02 0  0.7 0.02 0  0.72 0.02 0  0.74 0.02 0  0.76 0.02 0  0.78 0.02 0  0.8 0.02 0  0.82 0.02 0  0.84 0.02 0  0.86 0.02 0  0.88 0.02 0  0.9 0.02 0  0.92 0.02 0  0.9399999999999999 0.02 0  0.96 0.02 0  0.98 0.02 0  1 0.02 0  1.02 0.02 0  1.04 0.02 0  1.06 0.02 0  1.08 0.02 0  1.1 0.02 0  1.12 0.02 0  1.14 0.02 0  1.16 0.02 0  1.18 0.02 0  1.2 0.02 0  1.22 0.02 0  1.24 0.02 0  1.26 0.02 0  1.28 0.02 0  1.3 0.02 0  1.32 0.02 0  1.34 0.02 0  1.36 0.02 0  1.38 0.02 0  1.4 0.02 0  1.42 0.02 0  1.44 0.02 0  1.46 0.02 0  1.48 0.02 0  1.5 0.02 0  1.52 0.02 0  1.54 0.02 0  1.56 0.02 0  1.58 0.02 0  1.6 0.02 0  1.62 0.02 0  1.64 0.02 0  1.66 0.02 0  1.68 0.02 0  1.7 0.02 0  1.72 0.02 0  1.74 0.02 0  1.76 0.02 0  1.78 0.02 0  1.8 0.02 0  1.82 0.02 0  1.84 0.02 0  1.86 0.02 0  1.88 0.02 0  1.9 0.02 0  1.92 0.02 0  1.94 0.02 0  1.96 0.02 0  1.98 0.02 0  2 0.02 0  0 0.04 0  0.02 0.04 0  0.04 0.04 0  0.06 0.04 0  0.08 0.04 0  0.1 0.04 0  0.12 0.04 0  0.14 0.04 0  0.16 0.04 0  0.18 0.04 0  0.2 0.04 0  0.22 0.04 0  0.24 0.04 0  0.26 0.04 0  0.28 0.04 0  0.3 0.04 0  0.32 0.04 0  0.34 0.04 0  0.36 0.04 0  0.38 0.04 0  0.4 0.04 0  0.42 0.04 0  0.44 0.04 0  0.46 0.04 0  0.48 0.04 0  0.5 0.04 0  0.52 0.04 0  0.54 0.04 0  0.5600000000000001 0.04 0  0.58 0.04 0  0.6 0.04 0  0.62 0.04 0  0.64 0.04 0  0.66 0.04 0  0.68 0.04 0  0.7 0.04 0  0.72 0.04 0  0.74 0.04 0  0.76 0.04 0  0.78 0.04 0  0.8 0.04 0  0.82 0.04 0  0.84 0.04 0  0.86 0.04 0  0.88 0.04 0  0.9 0.04 0  0.92 0.04 0  0.9399999999999999 0.04 0  0.96 0.04 0  0.98 0.04 0  1 0.04 0  1.02 0.04 0  1.04 0.04 0  1.06 0.04 0  1.08 0.04 0  1.1 0.04 0  1.12 0.04 0  1.14 0.04 0  1.16 0.04 0  1.18 0.04 0  1.2 0.04 0  1.22 0.04 0  1.24 0.04 0  1.26 0.04 0  1.28 0.04 0  1.3 0.04 0  1.32 0.04 0  1.34 0.04 0  1.36 0.04 0  1.38 0.04 0  1.4 0.04 0  1.42 0.04 0  1.44 0.04 0  1.46 0.04 0  1.48 0.04 0  1.5 0.04 0  1.52 0.04 0  1.54 0.04 0  1.56 0.04 0  1.58 0.04 0  1.6 0.04 0  1.62 0.04 0  1.64 0.04 0  1.66 0.04 0  1.68 0.04 0  1.7 0.04 0  1.72 0.04 0  1.74 0.04 0  1.76 0.04 0  1.78 0.04 0  1.8 0.04 0  1.82 0.04 0  1.84 0.04 0  1.86 0.04 0  1.88 0.04 0  1.9 0.04 0  1.92 0.04 0  1.94 0.04 0  1.96 0.04 0  1.98 0.04 0  2 0.04 0  0 0.06 0  0.02 0.06 0  0.04 0.06 0  0.06 0.06 0  0.08 0.06 0  0.1 0.06 0  0.12 0.06 0  0.14 0.06 0  0.16 0.06 0  0.18 0.06 0  0.2 0.06 0  0.22 0.06 0  0.24 0.06 0  0.26 0.06 0  0.28 0.06 0  0.3 0.06 0  0.32 0.06 0  0.34 0.06 0  0.36 0.06 0  0.38 0.06 0  0.4 0.06 0  0.42 0.06 0  0.44 0.06 0  0.46 0.06 0  0.48 0.06 0  0.5 0.06 0  0.52 0.06 0  0.54 0.06 0  0.5600000000000001 0.06 0  0.58 0.06 0  0.6 0.06 0  0.62 0.06 0  0.64 0.06 0  0.66 0.06 0  0.68 0.06 0  0.7 0.06 0  0.72 0.06 0  0.74 0.06 0  0.76 0.06 0  0.78 0.06 0  0.8 0.06 0  0.82 0.06 0  0.84 0.06 0  0.86 0.06 0  0.88 0.06 0  0.9 0.06 0  0.92 0.06 0  0.9399999999999999 0.06 0  0.96 0.06 0  0.98 0.06 0  1 0.06 0  1.02 0.06 0  1.04 0.06 0  1.06 0.06 0  1.08 0.06 0  1.1 0.06 0  1.12 0.06 0  1.14 0.06 0  1.16 0.06 0  1.18 0.06 0  1.2 0.06 0  1.22 0.06 0  1.24 0.06 0  1.26 0.06 0  1.28 0.06 0  1.3 0.06 0  1.32 0.06 0  1.34 0.06 0  1.36 0.06 0  1.38 0.06 0  1.4 0.06 0  1.42 0.06 0  1.44 0.06 0  1.46 0.06 0  1.48 0.06 0  1.5 0.06 0  1.52 0.06 0  1.54 0.06 0  1.56 0.06 0  1.58 0.06 0  1.6 0.06 0  1.62 0.06 0  1.64 0.06 0  1.66 0.06 0  1.68 0.06 0  1.7 0.06 0  1.72 0.06 0  1.74 0.06 0  1.76 0.06 0  1.78 0.06 0  1.8 0.06 0  1.82 0.06 0  1.84 0.06 0  1.86 0.06 0  1.88 0.06 0  1.9 0.06 0  1.92 0.06 0  1.94 0.06 0  1.96 0.06 0  1.98 0.06 0  2 0.06 0  0 0.08 0  0.02 0.08 0  0.04 0.08 0  0.06 0.08 0  0.08 0.08 0  0.1 0.08 0  0.12 0.08 0  0.14 0.08 0  0.16 0.08 0  0.18 0.08 0  0.2 0.08 0  0.22 0.08 0  0.24 0.08 0  0.26 0.08 0  0.28 0.08 0  0.3 0.08 0  0.32 0.08 0  0.34 0.08 0  0.36 0.08 0  0.38 0.08 0  0.4 0.08 0  0.42 0.08 0  0.44 0.08 0  0.46 0.08 0  0.48 0.08 0  0.5 0.08 0  0.52 0.08 0  0.54 0.08 0  0.5600000000000001 0.08 0  0.58 0.08 0  0.6 0.08 0  0.62 0.08 0  0.64 0.08 0  0.66 0.08 0  0.68 0.08 0  0.7 0.08 0  0.72 0.08 0  0.74 0.08 0  0.76 0.08 0  0.78 0.08 0  0.8 0.08 0  0.82 0.08 0  0.84 0.08 0  0.86 0.08 0  0.88 0.08 0  0.9 0.08 0  0.92 0.08 0  0.9399999999999999 0.08 0  0.96 0.08 0  0.98 0.08 0  1 0.08 0  1.02 0.08 0  1.04 0.08 0  1.06 0.08 0  1.08 0.08 0  1.1 0.08 0  1.12 0.08 0  1.14 0.08 0  1.16 0.08 0  1.18 0.08 0  1.2 0.08 0  1.22 0.08 0  1.24 0.08 0  1.26 0.08 0  1.28 0.08 0  1.3 0.08 0  1.32 0.08 0  1.34 0.08 0  1.36 0.08 0  1.38 0.08 0  1.4 0.08 0  1.42 0.08 0  1.44 0.08 0  1.46 0.08 0  1.48 0.08 0  1.5 0.08 0  1.52 0.08 0  1.54 0.08 0  1.56 0.08 0  1.58 0.08 0  1.6 0.08 0  1.62 0.08 0  1.64 0.08 0  1.66 0.08 0  1.68 0.08 0  1.7 0.08 0  1.72 0.08 0  1.74 0.08 0  1.76 0.08 0  1.78 0.08 0  1.8 0.08 0  1.82 0.08 0  1.84 0.08 0  1.86 0.08 0  1.88 0.08 0  1.9 0.08 0  1.92 0.08 0  1.94 0.08 0  1.96 0.08 0  1.98 0.08 0  2 0.08 0  0 0.1 0  0.02 0.1 0  0.04 0.1 0  0.06 0.1 0  0.08 0.1 0  0.1 0.1 0  0.12 0.1 0  0.14 0.1 0  0.16 0.1 0  0.18 0.1 0  0.2 0.1 0  0.22 0.1 0  0.24 0.1 0  0.26 0.1 0  0.28 0.1 0  0.3 0.1 0  0.32 0.1 0  0.34 0.1 0  0.36 0.1 0  0.38 0.1 0  0.4 0.1 0  0.42 0.1 0  0.44 0.1 0  0.46 0.1 0  0.48 0.1 0  0.5 0.1 0  0.52 0.1 0  0.54 0.1 0  0.5600000000000001 0.1 0  0.58 0.1 0  0.6 0.1 0  0.62 0.1 0  0.64 0.1 0  0.66 0.1 0  0.68 0.1 0  0.7 0.1 0  0.72 0.1 0  0.74 0.1 0  0.76 0.1 0  0.78 0.1 0  0.8 0.1 0  0.82 0.1 0  0.84 0.1 0  0.86 0.1 0  0.88 0.1 0  0.9 0.1 0  0.92 0.1 0  0.9399999999999999 0.1 0  0.96 0.1 0  0.98 0.1 0  1 0.1 0  1.02 0.1 0  1.04 0.1 0  1.06 0.1 0  1.08 0.1 0  1.1 0.1 0  1.12 0.1 0  1.14 0.1 0  1.16 0.1 0  1.18 0.1 0  1.2 0.1 0  1.22 0.1 0  1.24 0.1 0  1.26 0.1 0  1.28 0.1 0  1.3 0.1 0  1.32 0.1 0  1.34 0.1 0  1.36 0.1 0  1.38 0.1 0  1.4 0.1 0  1.42 0.1 0  1.44 0.1 0  1.46 0.1 0  1.48 0.1 0  1.5 0.1 0  1.52 0.1 0  1.54 0.1 0  1.56 0.1 0  1.58 0.1 0  1.6 0.1 0  1.62 0.1 0  1.64 0.1 0  1.66 0.1 0  1.68 0.1 0  1.7 0.1 0  1.72 0.1 0  1.74 0.1 0  1.76 0.1 0  1.78 0.1 0  1.8 0.1 0  1.82 0.1 0  1.84 0.1 0  1.86 0.1 0  1.88 0.1 0  1.9 0.1 0  1.92 0.1 0  1.94 0.1 0  1.96 0.1 0  1.98 0.1 0  2 0.1 0  0 0.12 0  0.02 0.12 0  0.04 0.12 0  0.06 0.12 0  0.08 0.12 0  0.1 0.12 0  0.12 0.12 0  0.14 0.12 0  0.16 0.12 0  0.18 0.12 0  0.2 0.12 0  0.22 0.12 0  0.24 0.12 0  0.26 0.12 0  0.28 0.12 0  0.3 0.12 0  0.32 0.12 0  0.34 0.12 0  0.36 0.12 0  0.38 0.12 0  0.4 0.12 0  0.42 0.12 0  0.44 0.12 0  0.46 0.12 0  0.48 0.12 0  0.5 0.12 0  0.52 0.12 0  0.54 0.12 0  0.5600000000000001 0.12 0  0.58 0.12 0  0.6 0.12 0  0.62 0.12 0  0.64 0.12 0  0.66 0.12 0  0.68 0.12 0  0.7 0.12 0  0.72 0.12 0  0.74 0.12 0  0.76 0.12 0  0.78 0.12 0  0.8 0.12 0  0.82 0.12 0  0.84 0.12 0  0.86 0.12 0  0.88 0.12 0  0.9 0.12 0  0.92 0.12 0  0.9399999999999999 0.12 0  0.96 0.12 0  0.98 0.12 0  1 0.12 0  1.02 0.12 0  1.04 0.12 0  1.06 0.12 0  1.08 0.12 0  1.1 0.12 0  1.12 0.12 0  1.14 0.12 0  1.16 0.12 0  1.18 0.12 0  1.2 0.12 0  1.22 0.12 0  1.24 0.12 0  1.26 0.12 0  1.28 0.12 0  1.3 0.12 0  1.32 0.12 0  1.34 0.12 0  1.36 0.12 0  1.38 0.12 0  1.4 0.12 0  1.42 0.12 0  1.44 0.12 0  1.46 0.12 0  1.48 0.12 0  1.5 0.12 0  1.52 0.12 0  1.54 0.12 0  1.56 0.12 0  1.58 0.12 0  1.6 0.12 0  1.62 0.12 0  1.64 0.12 0  1.66 0.12 0  1.68 0.12 0  1.7 0.12 0  1.72 0.12 0  1.74 0.12 0  1.76 0.12 0  1.78 0.12 0  1.8 0.12 0  1.82 0.12 0  1.84 0.12 0  1.86 0.12 0  1.88 0.12 0  1.9 0.12 0  1.92 0.12 0  1.94 0.12 0  1.96 0.12 0  1.98 0.12 0  2 0.12 0  0 0.14 0  0.02 0.14 0  0.04 0.14 0  0.06 0.14 0  0.08 0.14 0  0.1 0.14 0  0.12 0.14 0  0.14 0.14 0  0.16 0.14 0  0.18 0.14 0  0.2 0.14 0  0.22 0.14 0  0.24 0.14 0  0.26 0.14 0  0.28 0.14 0  0.3 0.14 0  0.32 0.14 0  0.34 0.14 0  0.36 0.14 0  0.38 0.14 0  0.4 0.14 0  0.42 0.14 0  0.44 0.14 0  0.46 0.14 0  0.48 0.14 0  0.5 0.14 0  0.52 0.14 0  0.54 0.14 0  0.5600000000000001 0.14 0  0.58 0.14 0  0.6 0.14 0  0.62 0.14 0  0.64 0.14 0  0.66 0.14 0  0.68 0.14 0  0.7 0.14 0  0.72 0.14 0  0.74 0.14 0  0.76 0.14 0  0.78 0.14 0  0.8 0.14 0  0.82 0.14 0  0.84 0.14 0  0.86 0.14 0  0.88 0.14 0  0.9 0.14 0  0.92 0.14 0  0.9399999999999999 0.14 0  0.96 0.14 0  0.98 0.14 0  1 0.14 0  1.02 0.14 0  1.04 0.14 0  1.06 0.14 0  1.08 0.14 0  1.1 0.14 0  1.12 0.14 0  1.14 0.14 0  1.16 0.14 0  1.18 0.14 0  1.2 0.14 0  1.22 0.14 0  1.24 0.14 0  1.26 0.14 0  1.28 0.14 0  1.3 0.14 0  1.32 0.14 0  1.34 0.14 0  1.36 0.14 0  1.38 0.14 0  1.4 0.14 0  1.42 0.14 0  1.44 0.14 0  1.46 0.14 0  1.48 0.14 0  1
[...]
<PointData  Scalars="sols[i]"> 
<DataArray  type="Float64"  Name="sols[i]"  format="ascii">4.2579078571037049e-03  2.8425528432451303e-03  2.8425528432451351e-03  2.8425528432451442e-03  2.8425528432451594e-03  2.8425528432451854e-03  2.8425528432452188e-03  2.8425528432452704e-03  2.8425528432453389e-03  2.8425528432454239e-03  2.8425528432455367e-03  2.8425528432456763e-03  2.8425528432458502e-03  2.8425528432460801e-03  2.8425528432464084e-03  2.8425528432469028e-03  2.8425528432477493e-03  2.8425528432493331e-03  2.8425528432524500e-03  2.8425528432588264e-03  2.8425528432720832e-03  2.8425528432997667e-03  2.8425528433575790e-03  2.8425528434778496e-03  2.8425528437265651e-03  2.8425528442371992e-03  2.8425528452767344e-03  2.8425528473726672e-03  2.8425528515526382e-03  2.8425528597862937e-03  2.8425528757783955e-03  2.8425529063449344e-03  2.8425529637024472e-03  2.8425530690726502e-03  2.8425532579465728e-03  2.8425535869599722e-03  2.8425541413020766e-03  2.8425550396662964e-03  2.8425564312987753e-03  2.8425584787342595e-03  2.8425613252264265e-03  2.8425650639388594e-03  2.8425697533055322e-03  2.8425755212929311e-03  2.8425826949112685e-03  2.8425917221454530e-03  2.8426027772143845e-03  2.8426154508221580e-03  2.8426290119021899e-03  2.8426431535173457e-03  2.8426583868091334e-03  2.8426745386566647e-03  2.8426888166113596e-03  2.8426972209201714e-03  2.8426970019847205e-03  2.8426876271407430e-03  2.8426709224817267e-03  2.8426499829117325e-03  2.8426280452628159e-03  2.8426077845406603e-03  2.8425908751038022e-03  2.8425779107934274e-03  2.8425686588375932e-03  2.8425624443985556e-03  2.8425584786522483e-03  2.8425560553077636e-03  2.8425546279951370e-03  2.8425538132772358e-03  2.8425533605289442e-03  2.8425531146476376e-03  2.8425529837240041e-03  2.8425529151827455e-03  2.8425528798129325e-03  2.8425528617764843e-03  2.8425528526621227e-03  2.8425528480815797e-03  2.8425528457806035e-03  2.8425528446168178e-03  2.8425528440181639e-03  2.8425528437010326e-03  2.8425528435258411e-03  2.8425528434240783e-03  2.8425528433618525e-03  2.8425528433221551e-03  2.8425528432960848e-03  2.8425528432786925e-03  2.8425528432670434e-03  2.8425528432592740e-03  2.8425528432541422e-03  2.8425528432507938e-03  2.8425528432486392e-03  2.8425528432472745e-03  2.8425528432464214e-03  2.8425528432459157e-03  2.8425528432455861e-03  2.8425528432453849e-03  2.8425528432452726e-03  2.8425528432452080e-03  2.8425528432451715e-03  2.8425528432451559e-03  8.4792869145549933e-03  2.8425528432451303e-03  1.4232190077163762e-03  1.4232190077163786e-03  1.4232190077163830e-03  1.4232190077163899e-03  1.4232190077164012e-03  1.4232190077164159e-03  1.4232190077164374e-03  1.4232190077164667e-03  1.4232190077165024e-03  1.4232190077165486e-03  1.4232190077166080e-03  1.4232190077166820e-03  1.4232190077167806e-03  1.4232190077169264e-03  1.4232190077171545e-03  1.4232190077175541e-03  1.4232190077183191e-03  1.4232190077198515e-03  1.4232190077230168e-03  1.4232190077296514e-03  1.4232190077436060e-03  1.4232190077729375e-03  1.4232190078343810e-03  1.4232190079623880e-03  1.4232190082273174e-03  1.4232190087714346e-03  1.4232190098791863e-03  1.4232190121120912e-03  1.4232190165623497e-03  1.4232190253182448e-03  1.4232190422927712e-03  1.4232190746443743e-03  1.4232191350965653e-03  1.4232192454814974e-03  1.4232194416534411e-03  1.4232197792938151e-03  1.4232203387500014e-03  1.4232212248549614e-03  1.4232225557318393e-03  1.4232244366401104e-03  1.4232269280618015e-03  1.4232300453091221e-03  1.4232338436501581e-03  1.4232385605515720e-03  1.4232445910730258e-03  1.4232521316769394e-03  1.4232608520033624e-03  1.4232700857446799e-03  1.4232795412278379e-03  1.4232899231072012e-03  1.4233015987807028e-03  1.4233124137903528e-03  1.4233190774909008e-03  1.4233194205357273e-03  1.4233129662684306e-03  1.4233011349361478e-03  1.4232862596613924e-03  1.4232707117046615e-03  1.4232564413048548e-03  1.4232446469573648e-03  1.4232357143933042e-03  1.4232294254767552e-03  1.4232252595945780e-03  1.4232226370682699e-03  1.4232210551078906e-03  1.4232201345095602e-03  1.4232196148108037e-03  1.4232193289051068e-03  1.4232191750442004e-03  1.4232190937889832e-03  1.4232190515622782e-03  1.4232190299137552e-03  1.4232190189369777e-03  1.4232190134162079e-03  1.4232190106512456e-03  1.4232190092645768e-03  1.4232190085624993e-03  1.4232190081996175e-03  1.4232190080055791e-03  1.4232190078969039e-03  1.4232190078327289e-03  1.4232190077928526e-03  1.4232190077670597e-03  1.4232190077499572e-03  1.4232190077384831e-03  1.4232190077307801e-03  1.4232190077256440e-03  1.4232190077222580e-03  1.4232190077200562e-03  1.4232190077186459e-03  1.4232190077177560e-03  1.4232190077172033e-03  1.4232190077168724e-03  1.4232190077166679e-03  1.4232190077165380e-03  1.4232190077164667e-03  1.4232190077164255e-03  1.4232190077164029e-03  1.4232190077163919e-03  2.8425528432451546e-03  2.8425528432451347e-03  1.4232190077163786e-03  1.4232190077163817e-03  1.4232190077163860e-03  1.4232190077163925e-03  1.4232190077164029e-03  1.4232190077164155e-03  1.4232190077164324e-03  1.4232190077164550e-03  1.4232190077164814e-03  1.4232190077165157e-03  1.4232190077165606e-03  1.4232190077166180e-03  1.4232190077167013e-03  1.4232190077168366e-03  1.4232190077170699e-03  1.4232190077175140e-03  1.4232190077184158e-03  1.4232190077202902e-03  1.4232190077242575e-03  1.4232190077327167e-03  1.4232190077507580e-03  1.4232190077891778e-03  1.4232190078707207e-03  1.4232190080429739e-03  1.4232190084048310e-03  1.4232190091600988e-03  1.4232190107248213e-03  1.4232190139391067e-03  1.4232190204779139e-03  1.4232190336313003e-03  1.4232190597484662e-03  1.4232191108246627e-03  1.4232192089432695e-03  1.4232193934776019e-03  1.4232197318381065e-03  1.4232203335133710e-03  1.4232213641553885e-03  1.4232230504186137e-03  1.4232256580675065e-03  1.4232294237846261e-03  1.4232344490297190e-03  1.4232406569472673e-03  1.4232480287416308e-03  1.4232571306010819e-03  1.4232691507639443e-03  1.4232847059695700e-03  1.4233027024440506e-03  1.4233209531553555e-03  1.4233385593080262e-03  1.4233588712977935e-03  1.4233848449421932e-03  1.4234100906387658e-03  1.4234251951043752e-03  1.4234252495918672e-03  1.4234095654668158e-03  1.4233824916879965e-03  1.4233498219088001e-03  1.4233167871153325e-03  1.4232875141367211e-03  1.4232642696637196e-03  1.4232474154251564e-03  1.4232360697664006e-03  1.4232288802281455e-03  1.4232245431749229e-03  1.4232220301471960e-03  1.4232206215120454e-03  1.4232198533338208e-03  1.4232194439177104e-03  1.4232192298689473e-03  1.4232191197561025e-03  1.4232190638705461e-03  1.4232190358159751e-03  1.4232190218466522e-03  1.4232190149216601e-03  1.4232190114853317e-03  1.4232190097643561e-03  1.4232190088841333e-03  1.4232190084174819e-03  1.4232190081572909e-03  1.4232190080034214e-03  1.4232190079071453e-03  1.4232190078441783e-03  1.4232190078018580e-03  1.4232190077731023e-03  1.4232190077535735e-03  1.4232190077404254e-03  1.4232190077316899e-03  1.4232190077259773e-03  1.4232190077223036e-03  1.4232190077199806e-03  1.4232190077185362e-03  1.4232190077176523e-03  1.4232190077171276e-03  1.4232190077168110e-03  1.4232190077166176e-03  1.4232190077165105e-03  1.4232190077164502e-03  1.4232190077164168e-03  1.4232190077164012e-03  2.8425528432451681e-03  2.8425528432451425e-03  1.4232190077163825e-03  1.4232190077163856e-03  1.4232190077163903e-03  1.4232190077163968e-03  1.4232190077164064e-03  1.4232190077164168e-03  1.4232190077164304e-03  1.4232190077164482e-03  1.4232190077164669e-03  1.4232190077164922e-03  1.4232190077165267e-03  1.4232190077165736e-03  1.4232190077166503e-03  1.4232190077167904e-03  1.4232190077170586e-03  1.4232190077176042e-03  1.4232190077187591e-03  1.4232190077212278e-03  1.4232190077265493e-03  1.4232190077380609e-03  1.4232190077629447e-03  1.4232190078166519e-03  1.4232190079322628e-03  1.4232190081802116e-03  1.4232190087096403e-03  1.4232190098342075e-03  1.4232190122083733e-03  1.4232190171852561e-03  1.4232190275324788e-03  1.4232190488391177e-03  1.4232190922208868e-03  1.4232191793791928e-03  1.4232193517269435e-03  1.4232196860662920e-03  1.4232203197099250e-03  1.4232214865885530e-03  1.4232235597337675e-03  1.4232270796297277e-03  1.4232327188309340e-03  1.4232411040949644e-03  1.4232524571473545e-03  1.4232663008981641e-03  1.4232820789845657e-03  1.4233011592099643e-03  1.4233273664852597e-03  1.4233624925868678e-03  1.4234020089917906e-03  1.4234383874955111e-03  1.4234686525889668e-03  1.4235068254608843e-03  1.4235709450225911e-03  1.4236423935797549e-03  1.4236875644419746e-03  1.4236906539405467e-03  1.4236505334697396e-03  1.4235828124545334e-03  1.4235037388532731e-03  1.4234258816888984e-03  1.4233590953888432e-03  1.4233081448901737e-03  1.4232728088539436e-03  1.4232500876242818e-03  1.4232363251189383e-03  1.4232283746425248e-03  1.4232239521772497e-03  1.4232215659441946e-03  1.4232203098318895e-03  1.4232196618417232e-03  1.4232193330677959e-03  1.4232191685129793e-03  1.4232190870488318e-03  1.4232190470482747e-03  1.4232190274991252e-03  1.4232190179401148e-03  1.4232190132248720e-03  1.4232190108487636e-03  1.4232190096047548e-03  1.4232190089160217e-03  1.4232190085082849e-03  1.4232190082507125e-03  1.4232190080796557e-03  1.4232190079626239e-03  1.4232190078816557e-03  1.4232190078257868e-03  1.4232190077876528e-03  1.4232190077620303e-03  1.4232190077451226e-03  1.4232190077341741e-03  1.4232190077272172e-03  1.4232190077228771e-03  1.4232190077202167e-03  1.4232190077186129e-03  1.4232190077176686e-03  1.4232190077171126e-03  1.4232190077167839e-03  1.4232190077166015e-03  1.4232190077165001e-03  1.4232190077164454e-03  1.4232190077164196e-03  2.8425528432451963e-03  2.8425528432451559e-03  1.4232190077163886e-03  1.4232190077163912e-03  1.4232190077163958e-03  1.4232190077164020e-03  1.4232190077164107e-03  1.4232190077164196e-03  1.4232190077164311e-03  1.4232190077164454e-03  1.4232190077164602e-03  1.4232190077164803e-03  1.4232190077165105e-03  1.4232190077165560e-03  1.4232190077166393e-03  1.4232190077168071e-03  1.4232190077171478e-03  1.4232190077178679e-03  1.4232190077194235e-03  1.4232190077227962e-03  1.4232190077301465e-03  1.4232190077462061e-03  1.4232190077812924e-03  1.4232190078578984e-03  1.4232190080248925e-03  1.4232190083880093e-03  1.4232190091750256e-03  1.4232190108739522e-03  1.4232190145236569e-03  1.4232190223191015e-03  1.4232190388567133e-03  1.4232190736600432e-03  1.4232191462101246e-03  1.4232192957378904e-03  1.4232195997279924e-03  1.4232202075099391e-03  1.4232213978769375e-03  1.4232236697347307e-03  1.4232278648384940e-03  1.4232352852984850e-03  1.4232476804431106e-03  1.4232668318799415e-03  1.4232934030510820e-03  1.4233254401476269e-03  1.4233596150027370e-03  1.4233984848404939e-03  1.4234533082961086e-03  1.4235266067472900e-03  1.4235972022889928e-03  2.1343380171356605e-03  2.8443679010950328e-03  2.8445308511473727e-03  2.8450298971969576e-03  2.1352159299881145e-03  1.4242136522070201e-03  1.4242843960515289e-03  1.4242095871469722e-03  1.4240441574624742e-03  1.4238510239426390e-03  1.4236642204263415e-03  1.4235092892657553e-03  1.4233962794984961e-03  1.4233216623572721e-03  1.4232759806566369e-03  1.4232495753270199e-03  1.4232349712137615e-03  1.4232271663793708e-03  1.4232231062251729e-03  1.4232210388446247e-03  1.4232200040625352e-03  1.4232194932172551e-03  1.4232192437779161e-03  1.4232191229849101e-03  1.4232190647876512e-03  1.4232190367597904e-03  1.4232190231615934e-03  1.4232190164303773e-03  1.4232190129673662e-03  1.4232190110758281e-03  1.4232190099618385e-03  1.4232190092545647e-03  1.4232190087784945e-03  1.4232190084469249e-03  1.4232190082131783e-03  1.4232190080489743e-03  1.4232190079351242e-03  1.4232190078575934e-03  1.4232190078058567e-03  1.4232190077720489e-03  1.4232190077504106e-03  1.4232190077368358e-03  1.4232190077284814e-03  1.4232190077234307e-03  1.4232190077204290e-03  1.4232190077186815e-03  1.4232190077176697e-03  1.4232190077170870e-03  1.4232190077167650e-03  1.4232190077165885e-03  1.4232190077164951e-03  1.4232190077164510e-03  2.8425528432452444e-03  2.8425528432451780e-03  1.4232190077163977e-03  1.4232190077163997e-03  1.4232190077164033e-03  1.4232190077164085e-03  1.4232190077164164e-03  1.4232190077164246e-03  1.4232190077164346e-03  1.4232190077164469e-03  1.4232190077164597e-03  1.4232190077164792e-03  1.4232190077165107e-03  1.4232190077165642e-03  1.4232190077166698e-03  1.4232190077168906e-03  1.4232190077173520e-03  1.4232190077183378e-03  1.4232190077204778e-03  1.4232190077251372e-03  1.4232190077353372e-03  1.4232190077577524e-03  1.4232190078070888e-03  1.4232190079157777e-03  1.4232190081551834e-03  1.4232190086819084e-03  1.4232190098384966e-03  1.4232190123711142e-03  1.4232190178970808e-03  1.4232190299013577e-03  1.4232190558405970e-03  1.4232191115356578e-03  1.4232192302129081e-03  1.4232194807844579e-03  1.4232200039591748e-03  1.4232210813848521e-03  1.4232232623616688e-03  1.4232275813295919e-03  1.4232358926960461e-03  1.4232512846612620e-03  1.4232783117885423e-03  1.4233222500678240e-03  1.4233857221675034e-03  1.4234619724702812e-03  1.4235349242452237e-03  1.4236029033078219e-03  1.4236923638488671e-03  2.1347064515260571e-03  2.8452375378066443e-03  4.2638671497611949e-03  5.1076675510371750e-01  5.1033737112202937e-01  5.1119150577105443e-01  5.1538500470077642e-01  4.2721664055567314e-03  2.1379323746878154e-03  1.4253526961615201e-03  1.4250686889003168e-03  1.4246186746476670e-03  1.4241708775523797e-03  1.4238123286549039e-03  1.4235646048919224e-03  1.4234101814912621e-03  1.4233206878183481e-03  1.4232714892303683e-03  1.4232454768507755e-03  1.4232321211772665e-03  1.4232254159773077e-03  1.4232221076029522e-03  1.4232204972496965e-03  1.4232197216814395e-03  1.4232193511444283e-03  1.4232191750409272e-03  1.4232190914487772e-03  1.4232190515459399e-03  1.4232190321583477e-03  1.4232190223839071e-03  1.4232190171420632e-03  1.4232190140880919e-03  1.4232190121475604e-03  1.4232190108262094e-03  1.4232190098892059e-03  1.4232190092152760e-03  1.4232190087325835e-03  1.4232190083919849e-03  1.4232190081565124e-03  1.4232190079973624e-03  1.4232190078922599e-03  1.4232190078244090e-03  1.4232190077815509e-03  1.4232190077550322e-03  1.4232190077389394e-03  1.4232190077293492e-03  1.4232190077237304e-03  1.4232190077204977e-03  1.4232190077186567e-03  1.4232190077176177e-03  1.4232190077170487e-03  1.4232190077167401e-03  1.4232190077165790e-03  1.4232190077165040e-03  2.8425528432453264e-03  2.8425528432452036e-03  1.4232190077164090e-03  1.4232190077164088e-03  1.4232190077164107e-03  1.4232190077164146e-03  1.4232190077164211e-03  1.4232190077164285e-03  1.4232190077164374e-03  1.4232190077164491e-03  1.4232190077164628e-03  1.4232190077164849e-03  1.4232190077165252e-03  1.4232190077165983e-03  1.4232190077167462e-03  1.4232190077170560e-03  1.4232190077177031e-03  1.4232190077190789e-03  1.4232190077220453e-03  1.4232190077284805e-03  1.4232190077425500e-03  1.4232190077735057e-03  1.4232190078418982e-03  1.4232190079934658e-03  1.4232190083299453e-03  1.4232190090773126e-03  1.4232190107365181e-03  1.4232190144149591e-03  1.4232190225520144e-03  1.4232190404982069e-03  1.4232190799289110e-03  1.4232191661631541e-03  1.4232193536946290e-03  1.4232197587259411e-03  1.4232206261883887e-03  1.4232224647424433e-03  1.4232263103631329e-03  1.4232342178842679e-03  1.4232501127192116e-03  1.4232810800102560e-03  1.4233387573734854e-03  1.4234389962080581e-03  1.4235933465229359e-03  1.4237814314977206e-03  1.4239344158825892e-03  1.4240046208476517e-03  2.1352719845332169e-03  4.2663022495809900e-03  5.1323736077535531e-01  5.1105754464291331e-01  5.0968601356917342e-01  5.0830805326143635e-01  5.0930852924679637e-01  5.1094538097535680e-01  5.4230155851266360e-01  6.8101341127377513e-01  2.8574226361874500e-03  1.4270718257358044e-03  1.4262679882093409e-03  1.4252218991989629e-03  1.4244006596971408e-03  1.4238701361732062e-03  1.4235613254305604e-03  1.4233930503749523e-03  1.4233053698114540e-03  1.4232611020340148e-03  1.4232392565844813e-03  1.4232286563401085e-03  1.4232235773138854e-03  1.4232211669130681e-03  1.4232200311294716e-03  1.4232194985107614e-03  1.4232192491494574e-03  1.4232191319350858e-03  1.4232190760178915e-03  1.4232190484258854e-03  1.4232190339481829e-03  1.4232190256434974e-03  1.4232190203819742e-03  1.4232190167619736e-03  1.4232190141458337e-03  1.4232190122221247e-03  1.4232190108140746e-03  1.4232190098008174e-03  1.4232190090882335e-03  1.4232190085996283e-03  1.4232190082730683e-03  1.4232190080601817e-03  1.4232190079246543e-03  1.4232190078402821e-03  1.4232190077888430e-03  1.4232190077580874e-03  1.4232190077400290e-03  1.4232190077296024e-03  1.4232190077236844e-03  1.4232190077203646e-03  1.4232190077185230e-03  1.4232190077175240e-03  1.4232190077169897e-03  1.4232190077167143e-03  1.4232190077165872e-03  2.8425528432454565e-03  2.8425528432452414e-03  1.4232190077164246e-03  1.4232190077164203e-03  1.4232190077164190e-03  1.4232190077164211e-03  1.4232190077164261e-03  1.4232190077164324e-03  1.4232190077164413e-03  1.4232190077164539e-03  1.4232190077164712e-03  1.4232190077165020e-03  1.4232190077165599e-03  1.4232190077166696e-03  1.4232190077168906e-03  1.4232190077173444e-03  1.4232190077182777e-03  1.4232190077202293e-03  1.4232190077243714e-03  1.4232190077332534e-03  1.4232190077525186e-03  1.4232190077947179e-03  1.4232190078878654e-03  1.4232190080947179e-03  1.4232190085560540e-03  1.4232190095877315e-03  1.4232190118980161e-03  1.4232190170727849e-03  1.4232190286554676e-03  1.4232190545417241e-03  1.4232191122655422e-03  1.4232192406049358e-03  1.4232195248932533e-03  1.4232201517638064e-03  1.4232215262968472e-03  1.4232245191869275e-03  1.4232309782329991e-03  1.4232447576505286e-03  1.4232737019920616e-03  1.4233331983981355e-03  1.4234516470833835e-03  1.4236755506786814e-03  1.4240531735509408e-03  1.4245310827043431e-03  1.4248413093467293e-03  2.1369488776223776e-03  4.2683438780539941e-03  5.1357198458331810e-01  5.1249817386182983e-01  4.9999999750896534e-01  4.9999999751555035e-01  4.9999999754729718e-01  4.9999999754933727e-01  4.9999999750865032e-01  4.9999999746701818e-01  5.5432115764176215e-01  7.6669631975671981e-01  2.8698068997848893e-03  1.4294486563644756e-03  1.4273015987539988e-03  1.4254797121643972e-03  1.4243873171363654e-03  1.4238003399755048e-03  1.4235012863187610e-03  1.4233538194342154e-03  1.4232826598473383e-03  1.4232488300285344e-03  1.4232329151487701e-03  1.4232254843502168e-03  1.4232220335679464e-03  1.4232204368469304e-03  1.4232196990306128e-03  1.4232193571304353e-03  1.4232191968255690e-03  1.4232191194213783e-03  1.4232190797881258e-03  1.4232190575102980e-03  1.4232190434951154e-03  1.4232190337637933e-03  1.4232190265856732e-03  1.4232190211742558e-03  1.4232190171140802e-03  1.4232190141260006e-03  1.4232190119833565e-03  1.4232190104898560e-03  1.4232190094780166e-03  1.4232190088110459e-03  1.4232190083826625e-03  1.4232190081141204e-03  1.4232190079495383e-03  1.4232190078507605e-03  1.4232190077926154e-03  1.4232190077589960e-03  1.4232190077398778e-03  1.4232190077291787e-03  1.4232190077232685e-03  1.4232190077200411e-03  1.4232190077183115e-03  1.4232190077173978e-03  1.4232190077169318e-03  1.4232190077167193e-03  2.8425528432456564e-03  2.8425528432452869e-03  1.4232190077164439e-03  1.4232190077164341e-03  1.4232190077164289e-03  1.4232190077164281e-03  1.4232190077164315e-03  1.4232190077164367e-03  1.4232190077164467e-03  1.4232190077164630e-03  1.4232190077164883e-03  1.4232190077165365e-03  1.4232190077166284e-03  1.4232190077168032e-03  1.4232190077171488e-03  1.4232190077178410e-03  1.4232190077192307e-03  1.4232190077220646e-03  1.4232190077279380e-03  1.4232190077402820e-03  1.4232190077666251e-03  1.4232190078236453e-03  1.42321900794