<?xml version="1.0"?>
<VTKFile type="UnstructuredGrid"  version="0.1"  >
<UnstructuredGrid>
<Piece  NumberOfPoints="5151" NumberOfCells="10000">
<Points>
<DataArray  type="Float64"  NumberOfComponents="3"  format="ascii">0 0 0  0.02 0 0  0.04 0 0  0.06 0 0  0.08 0 0  0.1 0 0  0.12 0 0  0.14 0 0  0.16 0 0  0.18 0 0  0.2 0 0  0.22 0 0  0.24 0 0  0.26 0 0  0.28 0 0  0.3 0 0  0.32 0 0  0.34 0 0  0.36 0 0  0.38 0 0  0.4 0 0  0.42 0 0  0.44 0 0  0.46 0 0  0.48 0 0  0.5 0 0  0.52 0 0  0.54 0 0  0.5600000000000001 0 0  0.58 0 0  0.6 0 0  0.62 0 0  0.64 0 0  0.66 0 0  0.68 0 0  0.7 0 0  0.72 0 0  0.74 0 0  0.76 0 0  0.78 0 0  0.8 0 0  0.82 0 0  0.84 0 0  0.86 0 0  0.88 0 0  0.9 0 0  0.92 0 0  0.9399999999999999 0 0  0.96 0 0  0.98 0 0  1 0 0  1.02 0 0  1.04 0 0  1.06 0 0  1.08 0 0  1.1 0 0  1.12 0 0  1.14 0 0  1.16 0 0  1.18 0 0  1.2 0 0  1.22 0 0  1.24 0 0  1.26 0 0  1.28 0 0  1.3 0 0  1.32 0 0  1.34 0 0  1.36 0 0  1.38 0 0  1.4 0 0  1.42 0 0  1.44 0 0  1.46 0 0  1.48 0 0  1.5 0 0  1.52 0 0  1.54 0 0  1.56 0 0  1.58 0 0  1.6 0 0  1.62 0 0  1.64 0 0  1.66 0 0  1.68 0 0  1.7 0 0  1.72 0 0  1.74 0 0  1.76 0 0  1.78 0 0  1.8 0 0  1.82 0 0  1.84 0 0  1.86 0 0  1.88 0 0  1.9 0 0  1.92 0 0  1.94 0 0  1.96 0 0  1.98 0 0  2 0 0  0 0.02 0  0.02 0.02 0  0.04 0.02 0  0.06 0.02 0  0.08 0.02 0  0.1 0.02 0  0.12 0.02 0  0.14 0.02 0  0.16 0.02 0  0.18 0.02 0  0.2 0.02 0  0.22 0.02 0  0.24 0.02 0  0.26 0.02 0  0.28 0.02 0  0.3 0.02 0  0.32 0.02 0  0.34 0.02 0  0.36 0.02 0  0.38 0.02 0  0.4 0.02 0  0.42 0.02 0  0.44 0.02 0  0.46 0.02 0  0.48 0.02 0  0.5 0.02 0  0.52 0.02 0  0.54 0.02 0  0.5600000000000001 0.02 0  0.58 0.02 0  0.6 0.02 0  0.62 0.02 0  0.64 0.02 0  0.66 0.02 0  0.68 0.02 0  0.7 0.02 0  0.72 0.02 0  0.74 0.02 0  0.76 0.02 0  0.78 0.02 0  0.8 0.02 0  0.82 0.02 0  0.84 0.02 0  0.86 0.02 0  0.88 0.02 0  0.9 0.02 0  0.92 0.02 0  0.9399999999999999 0.02 0  0.96 0.02 0  0.98 0.02 0  1 0.02 0  1.02 0.02 0  1.04 0.02 0  1.06 0.02 0  1.08 0.02 0  1.1 0.02 0  1.12 0.02 0  1.14 0.02 0  1.16 0.02 0  1.18 0.02 0  1.2 0.02 0  1.22 0.02 0  1.24 0.02 0  1.26 0.02 0  1.28 0.02 0  1.3 0.02 0  1.32 0.02 0  1.34 0.02 0  1.36 0.02 0  1.38 0.02 0  1.4 0.02 0  1.42 0.02 0  1.44 0.02 0  1.46 0.02 0  1.48 0.02 0  1.5 0.02 0  1.52 0.02 0  1.54 0.02 0  1.56 0.02 0  1.58 0.02 0  1.6 0.02 0  1.62 0.02 0  1.64 0.02 0  1.66 0.02 0  1.68 0.02 0  1.7 0.02 0  1.72 0.02 0  1.74 0.02 0  1.76 0.02 0  1.78 0.02 0  1.8 0.02 0  1.82 0.02 0  1.84 0.02 0  1.86 0.02 0  1.88 0.02 0  1.9 0.02 0  1.92 0.02 0  1.94 0.02 0  1.96 0.02 0  1.98 0.02 0  2 0.02 0  0 0.04 0  0.02 0.04 0  0.04 0.04 0  0.06 0.04 0  0.08 0.04 0  0.1 0.04 0  0.12 0.04 0  0.14 0.04 0  0.16 0.04 0  0.18 0.04 0  0.2 0.04 0  0.22 0.04 0  0.24 0.04 0  0.26 0.04 0  0.28 0.04 0  0.3 0.04 0  0.32 0.04 0  0.34 0.04 0  0.36 0.04 0  0.38 0.04 0  0.4 0.04 0  0.42 0.04 0  0.44 0.04 0  0.46 0.04 0  0.48 0.04 0  0.5 0.04 0  0.52 0.04 0  0.54 0.04 0  0.5600000000000001 0.04 0  0.58 0.04 0  0.6 0.04 0  0.62 0.04 0  0.64 0.04 0  0.66 0.04 0  0.68 0.04 0  0.7 0.04 0  0.72 0.04 0  0.74 0.04 0  0.76 0.04 0  0.78 0.04 0  0.8 0.04 0  0.82 0.04 0  0.84 0.04 0  0.86 0.04 0  0.88 0.04 0  0.9 0.04 0  0.92 0.04 0  0.9399999999999999 0.04 0  0.96 0.04 0  0.98 0.04 0  1 0.04 0  1.02 0.04 0  1.04 0.04 0  1.06 0.04 0  1.08 0.04 0  1.1 0.04 0  1.12 0.04 0  1.14 0.04 0  1.16 0.04 0  1.18 0.04 0  1.2 0.04 0  1.22 0.04 0  1.24 0.04 0  1.26 0.04 0  1.28 0.04 0  1.3 0.04 0  1.32 0.04 0  1.34 0.04 0  1.36 0.04 0  1.38 0.04 0  1.4 0.04 0  1.42 0.04 0  1.44 0.04 0  1.46 0.04 0  1.48 0.04 0  1.5 0.04 0  1.52 0.04 0  1.54 0.04 0  1.56 0.04 0  1.58 0.04 0  1.6 0.04 0  1.62 0.04 0  1.64 0.04 0  1.66 0.04 0  1.68 0.04 0  1.7 0.04 0  1.72 0.04 0  1.74 0.04 0  1.76 0.04 0  1.78 0.04 0  1.8 0.04 0  1.82 0.04 0  1.84 0.04 0  1.86 0.04 0  1.88 0.04 0  1.9 0.04 0  1.92 0.04 0  1.94 0.04 0  1.96 0.04 0  1.98 0.04 0  2 0.04 0  0 0.06 0  0.02 0.06 0  0.04 0.06 0  0.06 0.06 0  0.08 0.06 0  0.1 0.06 0  0.12 0.06 0  0.14 0.06 0  0.16 0.06 0  0.18 0.06 0  0.2 0.06 0  0.22 0.06 0  0.24 0.06 0  0.26 0.06 0  0.28 0.06 0  0.3 0.06 0  0.32 0.06 0  0.34 0.06 0  0.36 0.06 0  0.38 0.06 0  0.4 0.06 0  0.42 0.06 0  0.44 0.06 0  0.46 0.06 0  0.48 0.06 0  0.5 0.06 0  0.52 0.06 0  0.54 0.06 0  0.5600000000000001 0.06 0  0.58 0.06 0  0.6 0.06 0  0.62 0.06 0  0.64 0.06 0  0.66 0.06 0  0.68 0.06 0  0.7 0.06 0  0.72 0.06 0  0.74 0.06 0  0.76 0.06 0  0.78 0.06 0  0.8 0.06 0  0.82 0.06 0  0.84 0.06 0  0.86 0.06 0  0.88 0.06 0  0.9 0.06 0  0.92 0.06 0  0.9399999999999999 0.06 0  0.96 0.06 0  0.98 0.06 0  1 0.06 0  1.02 0.06 0  1.04 0.06 0  1.06 0.06 0  1.08 0.06 0  1.1 0.06 0  1.12 0.06 0  1.14 0.06 0  1.16 0.06 0  1.18 0.06 0  1.2 0.06 0  1.22 0.06 0  1.24 0.06 0  1.26 0.06 0  1.28 0.06 0  1.3 0.06 0  1.32 0.06 0  1.34 0.06 0  1.36 0.06 0  1.38 0.06 0  1.4 0.06 0  1.42 0.06 0  1.44 0.06 0  1.46 0.06 0  1.48 0.06 0  1.5 0.06 0  1.52 0.06 0  1.54 0.06 0  1.56 0.06 0  1.58 0.06 0  1.6 0.06 0  1.62 0.06 0  1.64 0.06 0  1.66 0.06 0  1.68 0.06 0  1.7 0.06 0  1.72 0.06 0  1.74 0.06 0  1.76 0.06 0  1.78 0.06 0  1.8 0.06 0  1.82 0.06 0  1.84 0.06 0  1.86 0.06 0  1.88 0.06 0  1.9 0.06 0  1.92 0.06 0  1.94 0.06 0  1.96 0.06 0  1.98 0.06 0  2 0.06 0  0 0.08 0  0.02 0.08 0  0.04 0.08 0  0.06 0.08 0  0.08 0.08 0  0.1 0.08 0  0.12 0.08 0  0.14 0.08 0  0.16 0.08 0  0.18 0.08 0  0.2 0.08 0  0.22 0.08 0  0.24 0.08 0  0.26 0.08 0  0.28 0.08 0  0.3 0.08 0  0.32 0.08 0  0.34 0.08 0  0.36 0.08 0  0.38 0.08 0  0.4 0.08 0  0.42 0.08 0  0.44 0.08 0  0.46 0.08 0  0.48 0.08 0  0.5 0.08 0  0.52 0.08 0  0.54 0.08 0  0.5600000000000001 0.08 0  0.58 0.08 0  0.6 0.08 0  0.62 0.08 0  0.64 0.08 0  0.66 0.08 0  0.68 0.08 0  0.7 0.08 0  0.72 0.08 0  0.74 0.08 0  0.76 0.08 0  0.78 0.08 0  0.8 0.08 0  0.82 0.08 0  0.84 0.08 0  0.86 0.08 0  0.88 0.08 0  0.9 0.08 0  0.92 0.08 0  0.9399999999999999 0.08 0  0.96 0.08 0  0.98 0.08 0  1 0.08 0  1.02 0.08 0  1.04 0.08 0  1.06 0.08 0  1.08 0.08 0  1.1 0.08 0  1.12 0.08 0  1.14 0.08 0  1.16 0.08 0  1.18 0.08 0  1.2 0.08 0  1.22 0.08 0  1.24 0.08 0  1.26 0.08 0  1.28 0.08 0  1.3 0.08 0  1.32 0.08 0  1.34 0.08 0  1.36 0.08 0  1.38 0.08 0  1.4 0.08 0  1.42 0.08 0  1.44 0.08 0  1.46 0.08 0  1.48 0.08 0  1.5 0.08 0  1.52 0.08 0  1.54 0.08 0  1.56 0.08 0  1.58 0.08 0  1.6 0.08 0  1.62 0.08 0  1.64 0.08 0  1.66 0.08 0  1.68 0.08 0  1.7 0.08 0  1.72 0.08 0  1.74 0.08 0  1.76 0.08 0  1.78 0.08 0  1.8 0.08 0  1.82 0.08 0  1.84 0.08 0  1.86 0.08 0  1.88 0.08 0  1.9 0.08 0  1.92 0.08 0  1.94 0.08 0  1.96 0.08 0  1.98 0.08 0  2 0.08 0  0 0.1 0  0.02 0.1 0  0.04 0.1 0  0.06 0.1 0  0.08 0.1 0  0.1 0.1 0  0.12 0.1 0  0.14 0.1 0  0.16 0.1 0  0.18 0.1 0  0.2 0.1 0  0.22 0.1 0  0.24 0.1 0  0.26 0.1 0  0.28 0.1 0  0.3 0.1 0  0.32 0.1 0  0.34 0.1 0  0.36 0.1 0  0.38 0.1 0  0.4 0.1 0  0.42 0.1 0  0.44 0.1 0  0.46 0.1 0  0.48 0.1 0  0.5 0.1 0  0.52 0.1 0  0.54 0.1 0  0.5600000000000001 0.1 0  0.58 0.1 0  0.6 0.1 0  0.62 0.1 0  0.64 0.1 0  0.66 0.1 0  0.68 0.1 0  0.7 0.1 0  0.72 0.1 0  0.74 0.1 0  0.76 0.1 0  0.78 0.1 0  0.8 0.1 0  0.82 0.1 0  0.84 0.1 0  0.86 0.1 0  0.88 0.1 0  0.9 0.1 0  0.92 0.1 0  0.9399999999999999 0.1 0  0.96 0.1 0  0.98 0.1 0  1 0.1 0  1.02 0.1 0  1.04 0.1 0  1.06 0.1 0  1.08 0.1 0  1.1 0.1 0  1.12 0.1 0  1.14 0.1 0  1.16 0.1 0  1.18 0.1 0  1.2 0.1 0  1.22 0.1 0  1.24 0.1 0  1.26 0.1 0  1.28 0.1 0  1.3 0.1 0  1.32 0.1 0  1.34 0.1 0  1.36 0.1 0  1.38 0.1 0  1.4 0.1 0  1.42 0.1 0  1.44 0.1 0  1.46 0.1 0  1.48 0.1 0  1.5 0.1 0  1.52 0.1 0  1.54 0.1 0  1.56 0.1 0  1.58 0.1 0  1.6 0.1 0  1.62 0.1 0  1.64 0.1 0  1.66 0.1 0  1.68 0.1 0  1.7 0.1 0  1.72 0.1 0  1.74 0.1 0  1.76 0.1 0  1.78 0.1 0  1.8 0.1 0  1.82 0.1 0  1.84 0.1 0  1.86 0.1 0  1.88 0.1 0  1.9 0.1 0  1.92 0.1 0  1.94 0.1 0  1.96 0.1 0  1.98 0.1 0  2 0.1 0  0 0.12 0  0.02 0.12 0  0.04 0.12 0  0.06 0.12 0  0.08 0.12 0  0.1 0.12 0  0.12 0.12 0  0.14 0.12 0  0.16 0.12 0  0.18 0.12 0  0.2 0.12 0  0.22 0.12 0  0.24 0.12 0  0.26 0.12 0  0.28 0.12 0  0.3 0.12 0  0.32 0.12 0  0.34 0.12 0  0.36 0.12 0  0.38 0.12 0  0.4 0.12 0  0.42 0.12 0  0.44 0.12 0  0.46 0.12 0  0.48 0.12 0  0.5 0.12 0  0.52 0.12 0  0.54 0.12 0  0.5600000000000001 0.12 0  0.58 0.12 0  0.6 0.12 0  0.62 0.12 0  0.64 0.12 0  0.66 0.12 0  0.68 0.12 0  0.7 0.12 0  0.72 0.12 0  0.74 0.12 0  0.76 0.12 0  0.78 0.12 0  0.8 0.12 0  0.82 0.12 0  0.84 0.12 0  0.86 0.12 0  0.88 0.12 0  0.9 0.12 0  0.92 0.12 0  0.9399999999999999 0.12 0  0.96 0.12 0  0.98 0.12 0  1 0.12 0  1.02 0.12 0  1.04 0.12 0  1.06 0.12 0  1.08 0.12 0  1.1 0.12 0  1.12 0.12 0  1.14 0.12 0  1.16 0.12 0  1.18 0.12 0  1.2 0.12 0  1.22 0.12 0  1.24 0.12 0  1.26 0.12 0  1.28 0.12 0  1.3 0.12 0  1.32 0.12 0  1.34 0.12 0  1.36 0.12 0  1.38 0.12 0  1.4 0.12 0  1.42 0.12 0  1.44 0.12 0  1.46 0.12 0  1.48 0.12 0  1.5 0.12 0  1.52 0.12 0  1.54 0.12 0  1.56 0.12 0  1.58 0.12 0  1.6 0.12 0  1.62 0.12 0  1.64 0.12 0  1.66 0.12 0  1.68 0.12 0  1.7 0.12 0  1.72 0.12 0  1.74 0.12 0  1.76 0.12 0  1.78 0.12 0  1.8 0.12 0  1.82 0.12 0  1.84 0.12 0  1.86 0.12 0  1.88 0.12 0  1.9 0.12 0  1.92 0.12 0  1.94 0.12 0  1.96 0.12 0  1.98 0.12 0  2 0.12 0  0 0.14 0  0.02 0.14 0  0.04 0.14 0  0.06 0.14 0  0.08 0.14 0  0.1 0.14 0  0.12 0.14 0  0.14 0.14 0  0.16 0.14 0  0.18 0.14 0  0.2 0.14 0  0.22 0.14 0  0.24 0.14 0  0.26 0.14 0  0.28 0.14 0  0.3 0.14 0  0.32 0.14 0  0.34 0.14 0  0.36 0.14 0  0.38 0.14 0  0.4 0.14 0  0.42 0.14 0  0.44 0.14 0  0.46 0.14 0  0.48 0.14 0  0.5 0.14 0  0.52 0.14 0  0.54 0.14 0  0.5600000000000001 0.14 0  0.58 0.14 0  0.6 0.14 0  0.62 0.14 0  0.64 0.14 0  0.66 0.14 0  0.68 0.14 0  0.7 0.14 0  0.72 0.14 0  0.74 0.14 0  0.76 0.14 0  0.78 0.14 0  0.8 0.14 0  0.82 0.14 0  0.84 0.14 0  0.86 0.14 0  0.88 0.14 0  0.9 0.14 0  0.92 0.14 0  0.9399999999999999 0.14 0  0.96 0.14 0  0.98 0.14 0  1 0.14 0  1.02 0.14 0  1.04 0.14 0  1.06 0.14 0  1.08 0.14 0  1.1 0.14 0  1.12 0.14 0  1.14 0.14 0  1.16 0.14 0  1.18 0.14 0  1.2 0.14 0  1.22 0.14 0  1.24 0.14 0  1.26 0.14 0  1.28 0.14 0  1.3 0.14 0  1.32 0.14 0  1.34 0.14 0  1.36 0.14 0  1.38 0.14 0  1.4 0.14 0  1.42 0.14 0  1.44 0.14 0  1.46 0.14 0  1.48 0.14 0  1
[...]
<PointData  Scalars="sols[i]"> 
<DataArray  type="Float64"  Name="sols[i]"  format="ascii">4.1494546661363163e-01  3.8524777910497926e-01  3.8524654385167861e-01  3.8524429494932683e-01  3.8524062083501498e-01  3.8523496508118388e-01  3.8522662338943997e-01  3.8521476884406092e-01  3.8519849185282634e-01  3.8517684170003053e-01  3.8514886222529759e-01  3.8511361876554978e-01  3.8507021631546562e-01  3.8501781040989402e-01  3.8495561306181114e-01  3.8488289647657542e-01  3.8479899720843341e-01  3.8470332273877389e-01  3.8459536106370018e-01  3.8447469192398409e-01  3.8434099608875588e-01  3.8419405819819846e-01  3.8403376059665928e-01  3.8386007211466550e-01  3.8367303680806297e-01  3.8347277382913286e-01  3.8325949961182820e-01  3.8303357787907633e-01  3.8279559996642698e-01  3.8254649390098761e-01  3.8228765627256173e-01  3.8202109514099913e-01  3.8174956532381177e-01  3.8147667164048876e-01  3.8120691444905341e-01  3.8094565730932306e-01  3.8069900705018950e-01  3.8047361863463885e-01  3.8027648618518051e-01  3.8011461821900988e-01  3.7999467574956242e-01  3.7992273649404390e-01  3.7990400442518080e-01  3.7994253858067856e-01  3.8004101196633960e-01  3.8020050536691086e-01  3.8042035366728666e-01  3.8069807789993232e-01  3.8102944658616206e-01  3.8140870119985310e-01  3.8182893512491300e-01  3.8228255218419721e-01  3.8276168598811555e-01  3.8325845806861947e-01  3.8376500792941176e-01  3.8427335653835620e-01  3.8477533723591628e-01  3.8526281387701550e-01  3.8572812145220869e-01  3.8616441754653708e-01  3.8656568832158461e-01  3.8692657000266090e-01  3.8724239531928811e-01  3.8750933352544531e-01  3.8772429032937367e-01  3.8788521759849515e-01  3.8799249955446236e-01  3.8805019738987478e-01  3.8806543012527978e-01  3.8804665763763274e-01  3.8800348358676451e-01  3.8794809460575153e-01  3.8789584310940223e-01  3.8786294664672433e-01  3.8786165300919745e-01  3.8789506538357738e-01  3.8795371589318695e-01  3.8801446175611898e-01  3.8804383367843193e-01  3.8801144842063573e-01  3.8790975625934326e-01  3.8776041914827214e-01  3.8759427545378361e-01  3.8742669239445193e-01  3.8725360281720456e-01  3.8706521383582310e-01  3.8685800742256216e-01  3.8663651584009578e-01  3.8641022208729314e-01  3.8619025159406090e-01  3.8598682315913274e-01  3.8580758318707259e-01  3.8565688779130075e-01  3.8553588854705578e-01  3.8544312684400678e-01  3.8537534750075153e-01  3.8532833300961705e-01  3.8529765493208917e-01  3.8527931195580911e-01  3.8527027127396324e-01  4.5398870230164368e-01  3.8524776786645770e-01  3.2236124413055256e-01  3.2235847661356581e-01  3.2235335938741583e-01  3.2234510454023263e-01  3.2233272033803623e-01  3.2231499017952253e-01  3.2229048206398037e-01  3.2225759367684154e-01  3.2221461463812484e-01  3.2215978893180236e-01  3.2209136795054066e-01  3.2200765089316630e-01  3.2190701340944405e-01  3.2178792788077309e-01  3.2164898002390052e-01  3.2148888667865383e-01  3.2130651837007024e-01  3.2110092744580904e-01  3.2087137868075327e-01  3.2061737450050737e-01  3.2033866538620015e-01  3.2003524041865211e-01  3.1970730306490425e-01  3.1935524544643035e-01  3.1897963921562900e-01  3.1858126398231301e-01  3.1816118341499644e-01  3.1772087369901414e-01  3.1726240296504177e-01  3.1678865268804424e-01  3.1630356102388402e-01  3.1581235446635542e-01  3.1532172285561016e-01  3.1483989056408257e-01  3.1437654810454707e-01  3.1394263121365196e-01  3.1354996182042283e-01  3.1321082042297749e-01  3.1293746624443575e-01  3.1274149270874863e-01  3.1263339403411300e-01  3.1262211894164277e-01  3.1271463535610833e-01  3.1291554752663486e-01  3.1322675428603997e-01  3.1364716168057560e-01  3.1417249596626212e-01  3.1479530039768838e-01  3.1550521839906120e-01  3.1628960784676863e-01  3.1713439870343108e-01  3.1802497403181013e-01  3.1894677183429437e-01  3.1988534101308208e-01  3.2082583865014253e-01  3.2175251250086934e-01  3.2264894105074060e-01  3.2349908551275214e-01  3.2428833601075058e-01  3.2500360331094802e-01  3.2563271892488110e-01  3.2616465089525265e-01  3.2659018199470635e-01  3.2690135298875789e-01  3.2709140659198199e-01  3.2715795966794409e-01  3.2710677522778925e-01  3.2695112757431005e-01  3.2670743876992087e-01  3.2639345337071773e-01  3.2603025580312428e-01  3.2564385231696896e-01  3.2526388577072668e-01  3.2492019665175370e-01  3.2463962486769421e-01  3.2444633692259733e-01  3.2436207845532472e-01  3.2439763461629784e-01  3.2454210330614053e-01  3.2476756362965459e-01  3.2504179530936261e-01  3.2531652196639038e-01  3.2552236805622281e-01  3.2560005593256691e-01  3.2552731765254250e-01  3.2532057766580458e-01  3.2501681411481942e-01  3.2465663131981065e-01  3.2427631847529681e-01  3.2390513137395260e-01  3.2356436894720331e-01  3.2326737159585600e-01  3.2302033273623409e-01  3.2282371199317461e-01  3.2267392894288188e-01  3.2256504436269140e-01  3.2249022550471779e-01  3.2244290421494032e-01  3.2241767599440940e-01  3.8526982715301511e-01  3.8524649487351947e-01  3.2235840929235632e-01  3.2235411681780873e-01  3.2234648871016902e-01  3.2233476050326182e-01  3.2231809203666029e-01  3.2229556258370390e-01  3.2226613434438389e-01  3.2222863565892323e-01  3.2218177281081151e-01  3.2212416032389979e-01  3.2205435813365385e-01  3.2197090821281865e-01  3.2187236796191937e-01  3.2175734135829903e-01  3.2162451113795126e-01  3.2147267589946138e-01  3.2130079441200465e-01  3.2110803584814684e-01  3.2089382990788512e-01  3.2065790443035119e-01  3.2040029801318409e-01  3.2012134409258175e-01  3.1982163542588349e-01  3.1950198723819823e-01  3.1916341873667287e-01  3.1880716904727413e-01  3.1843475218922968e-01  3.1804805198395475e-01  3.1764945726150651e-01  3.1724203257811723e-01  3.1682970767001717e-01  3.1641745288846956e-01  3.1601139565614356e-01  3.1561883373534461e-01  3.1524811868472769e-01  3.1490841147832027e-01  3.1460934022986048e-01  3.1436061026481454e-01  3.1417161335973265e-01  3.1405100626516036e-01  3.1400638705374911e-01  3.1404405812283720e-01  3.1416876789309928e-01  3.1438349606996507e-01  3.1468923130454496e-01  3.1508472016211314e-01  3.1556621219077041e-01  3.1612728992160116e-01  3.1675894641510910e-01  3.1745004572469276e-01  3.1818814594792266e-01  3.1896047423251217e-01  3.1975464967034289e-01  3.2055864658908784e-01  3.2135973521136924e-01  3.2214318418513033e-01  3.2289221980386851e-01  3.2358958455970921e-01  3.2421938508086778e-01  3.2476728125653304e-01  3.2521904801489815e-01  3.2556109390722071e-01  3.2578296362098252e-01  3.2587657605279269e-01  3.2583397088975602e-01  3.2565069705075533e-01  3.2533242251901784e-01  3.2489561776613723e-01  3.2436091199260353e-01  3.2374954322490962e-01  3.2308555375427878e-01  3.2239665880801854e-01  3.2171196372481148e-01  3.2106302965921601e-01  3.2048968818979418e-01  3.2004658761501231e-01  3.1979484731276381e-01  3.1976755182525957e-01  3.1996637738026584e-01  3.2042332647434218e-01  3.2119387684986267e-01  3.2219593759987297e-01  3.2317720622420176e-01  3.2391593213165837e-01  3.2433657533349108e-01  3.2448255953230848e-01  3.2443651638210791e-01  3.2427172600986931e-01  3.2404174524700941e-01  3.2378423158621744e-01  3.2352545248617975e-01  3.2328302024598754e-01  3.2306762702533381e-01  3.2288453794314631e-01  3.2273508955219521e-01  3.2261813732469141e-01  3.2253130445558775e-01  3.2247195473663409e-01  3.2243801000372840e-01  3.8527684025449938e-01  3.8524415840355197e-01  3.2235313022835782e-01  3.2234631974637101e-01  3.2233489185919406e-01  3.2231824208569937e-01  3.2229572754331465e-01  3.2226671769300202e-01  3.2223055625273567e-01  3.2218650417953942e-01  3.2213370519630197e-01  3.2207117996184598e-01  3.2199784114879132e-01  3.2191252061237541e-01  3.2181400345045313e-01  3.2170106807179039e-01  3.2157253463155766e-01  3.2142732520523382e-01  3.2126453647662573e-01  3.2108352038728150e-01  3.2088396150325948e-01  3.2066592901177976e-01  3.2042988442752635e-01  3.2017664442380328e-01  3.1990731687489438e-01  3.1962323804088766e-01  3.1932593616985594e-01  3.1901713138398713e-01  3.1869876747459341e-01  3.1837307267413917e-01  3.1804265421944627e-01  3.1771062870587230e-01  3.1738077405716969e-01  3.1705766657135342e-01  3.1674675101276223e-01  3.1645429664761077e-01  3.1618722056332299e-01  3.1595279891273248e-01  3.1575831686897771e-01  3.1561071742339014e-01  3.1551629896239325e-01  3.1548048396987055e-01  3.1550765181162749e-01  3.1560109659733204e-01  3.1576300717219419e-01  3.1599444248010400e-01  3.1629524809561121e-01  3.1666383674341986e-01  3.1709681827553321e-01  3.1758856572889016e-01  3.1813097086039255e-01  3.1871366949116803e-01  3.1932483249363236e-01  3.1995237939856475e-01  3.2058510963838643e-01  3.2121281583281286e-01  3.2182445413192906e-01  3.2240534406591492e-01  3.2293626183510399e-01  3.2339564589000258e-01  3.2376337445385256e-01  3.2402213284519704e-01  3.2415382409405008e-01  3.2413917346857435e-01  3.2396500665919270e-01  3.2362589580899492e-01  3.2311843218240260e-01  3.2244430278697106e-01  3.2162094175159012e-01  3.2068408339176951e-01  3.1968007219798011e-01  3.1866906692766012e-01  3.1773998084385391e-01  3.1700293888961212e-01  3.1651790675500951e-01  3.1620958813450534e-01  3.1591026311801912e-01  3.1554438322475137e-01  3.1519449872653593e-01  3.1510820086894609e-01  3.1552879501097753e-01  3.1607816697890950e-01  3.1628726671546820e-01  3.1714800525071674e-01  3.1932437680826548e-01  3.2133699479475197e-01  3.2267820814775733e-01  3.2341537696668776e-01  3.2374987275561501e-01  3.2384306485705905e-01  3.2379574219860002e-01  3.2366875823156699e-01  3.2350067799689125e-01  3.2331716639522906e-01  3.2313544891429052e-01  3.2296669262118322e-01  3.2281767011806528e-01  3.2269215551873320e-01  3.2259212498883955e-01  3.2251881989969750e-01  3.2247387027666141e-01  3.8529042427052107e-01  3.8524031268194692e-01  3.2234456652850829e-01  3.2233429452272300e-01  3.2231798094973457e-01  3.2229538685677350e-01  3.2226611611820455e-01  3.2222977316887602e-01  3.2218598198003484e-01  3.2213433153044252e-01  3.2207431747289889e-01  3.2200530790392190e-01  3.2192653574238134e-01  3.2183711195754849e-01  3.2173605472186279e-01  3.2162233368769022e-01  3.2149493253714789e-01  3.2135293402641379e-01  3.2119562671172502e-01  3.2102262379390711e-01  3.2083397434940369e-01  3.2063022596675339e-01  3.2041240948166411e-01  3.2018195431435031e-01  3.1994057148304517e-01  3.1969014980897270e-01  3.1943269883014941e-01  3.1917033726466731e-01  3.1890530565238856e-01  3.1863999759049072e-01  3.1837702616758395e-01  3.1811933860828284e-01  3.1787036481933151e-01  3.1763415051369082e-01  3.1741540442078914e-01  3.1721940203137555e-01  3.1705173582047308e-01  3.1691795866605776e-01  3.1682320057279262e-01  3.1677183717566870e-01  3.1676726340521871e-01  3.1681179224964906e-01  3.1690666271182499e-01  3.1705215675892645e-01  3.1724779588638297e-01  3.1749252707814413e-01  3.1778479328615800e-01  3.1812234900844466e-01  3.1850174258070796e-01  3.1891752455210293e-01  3.1936155854402448e-01  3.1982288288106786e-01  3.2028831550269127e-01  3.2074387578660818e-01  3.2117665656914918e-01  3.2157567389360359e-01  3.2192939671189824e-01  3.2222082923678030e-01  3.2242497594796238e-01  3.2251091444071522e-01  3.2244862396873003e-01  3.2221615657399405e-01  3.2179476919017103e-01  3.2116471868275331e-01  3.2032262261549188e-01  3.1929730164557357e-01  3.1815819772121823e-01  3.1705507759500723e-01  3.1621441142982143e-01  3.1561509544760930e-01  3.1475547511811702e-01  3.1345197275618863e-01  3.1217456607447963e-01  3.0987799019977874e-01  3.0706489776612433e-01  3.0860056728236013e-01  3.1201341874672311e-01  3.1712071449715262e-01  3.2184261981768580e-01  3.2337733760348003e-01  3.2099621733963624e-01  3.1387990866775056e-01  3.0765636137416902e-01  3.1270031402317666e-01  3.1455942060952491e-01  3.1782770640085045e-01  3.2060698464717957e-01  3.2220571254900909e-01  3.2302909380269212e-01  3.2341743191847205e-01  3.2356188431561878e-01  3.2356422390419814e-01  3.2348272329303879e-01  3.2335439553879541e-01  3.2320441087840990e-01  3.2305019998820994e-01  3.2290367858352420e-01  3.2277285905466696e-01  3.2266323684785519e-01  3.2257914678113259e-01  3.2252518166436583e-01  3.8531133202198981e-01  3.8523436526847549e-01  3.2233169680906254e-01  3.2231725501233122e-01  3.2229527635707844e-01  3.2226609483669377e-01  3.2222961662014893e-01  3.2218562659183958e-01  3.2213391266770403e-01  3.2207425734385259e-01  3.2200638456813602e-01  3.2192991181001196e-01  3.2184432405660102e-01  3.2174897105925637e-01  3.2164308645191819e-01  3.2152583095672355e-01  3.2139636665864452e-01  3.2125397013824453e-01  3.2109818206868057e-01  3.2092897617287924e-01  3.2074691463754357e-01  3.2055321175948875e-01  3.2034966165633716e-01  3.2013846305323851e-01  3.1992201519240632e-01  3.1970275959689176e-01  3.1948311118637224e-01  3.1926545145686480e-01  3.1905212927490095e-01  3.1884546593875007e-01  3.1864780876447851e-01  3.1846166398494552e-01  3.1828988814398695e-01  3.1813586024948481e-01  3.1800352840216972e-01  3.1789725456722012e-01  3.1782146249587773e-01  3.1778017749744619e-01  3.1777658028505223e-01  3.1781267399893171e-01  3.1788912059880087e-01  3.1800524592473189e-01  3.1815915449067056e-01  3.1834800430290072e-01  3.1856837265743376e-01  3.1881664135973015e-01  3.1908924729154509e-01  3.1938255453648434e-01  3.1969217372793668e-01  3.2001170066589413e-01  3.2033147972501286e-01  3.2063805661169514e-01  3.2091426087831676e-01  3.2114021708800433e-01  3.2129593852401528e-01  3.2136406342490531e-01  3.2132765086897169e-01  3.2116316907594011e-01  3.2083762401306321e-01  3.2031082731346866e-01  3.1954589276711354e-01  3.1853686114171004e-01  3.1732947312549886e-01  3.1606958486130882e-01  3.1511791484295498e-01  3.1450245342241484e-01  3.1303118576359606e-01  3.1100551466381027e-01  3.0903556997292708e-01  3.0388610003707228e-01  3.0311623025908557e-01  3.0469985350891793e-01  3.0908963152822860e-01  3.1398788827471963e-01  3.1947265373256301e-01  3.3691963806600583e-01  4.2413687634216829e-01  4.4379459836826063e-01  4.6430770580211278e-01  4.7467666197189229e-01  4.5022742997066068e-01  4.4309440535582556e-01  3.1851026890895434e-01  3.0642269142577649e-01  3.1045707361861308e-01  3.1393606438693011e-01  3.1825954802911283e-01  3.2093122444215461e-01  3.2229985497205049e-01  3.2298874036459835e-01  3.2332005789177154e-01  3.2344636383689934e-01  3.2344749621108060e-01  3.2337237445636091e-01  3.2325445255749724e-01  3.2311745615720927e-01  3.2297811856099806e-01  3.2284812881376479e-01  3.2273585687420236e-01  3.2264800157394180e-01  3.2259081175183801e-01  3.8534004942845052e-01  3.8522559381426891e-01  3.2231334492948210e-01  3.2229448635150931e-01  3.2226654515977082e-01  3.2223057239959263e-01  3.2218683127296782e-01  3.2213525558262607e-01  3.2207570222925896e-01  3.2200802159013098e-01  3.2193203818312044e-01  3.2184750777274307e-01  3.2175408193675326e-01  3.2165129064773451e-01  3.2153854778272051e-01  3.2141518831811333e-01  3.2128055280125678e-01  3.2113413551296333e-01  3.2097579259871178e-01  3.2080598247142639e-01  3.2062598654356284e-01  3.2043795608274545e-01  3.2024472268428322e-01  3.2004946400165069e-01  3.1985536580519730e-01  3.1966540048277031e-01  3.1948227479522795e-01  3.1930845846242945e-01  3.1914617693912262e-01  3.1899738400682914e-01  3.1886381935259228e-01  3.1874720820093144e-01  3.1864956095439978e-01  3.1857343931059928e-01  3.1852201949905462e-01  3.1849884857695904e-01  3.1850733112991725e-01  3.1855010782142523e-01  3.1862851103912510e-01  3.1874221800298408e-01  3.1888913443586120e-01  3.1906549769610976e-01  3.1926607361301373e-01  3.1948449186044403e-01  3.1971373804067771e-01  3.1994669739182741e-01  3.2017658931898840e-01  3.2039690298632040e-01  3.2060054574568675e-01  3.2077792205613975e-01  3.2091498600592611e-01  3.2099258617919191e-01  3.2098609788478411e-01  3.2086470312329401e-01  3.2059326635991903e-01  3.2013946112634573e-01  3.1947732315698307e-01  3.1858141190562306e-01  3.1743511245744283e-01  3.1606518639633935e-01  3.1464673521438025e-01  3.1369875171522937e-01  3.1280626408598805e-01  3.1079382686359119e-01  3.0842249761769513e-01  3.0291229090822852e-01  2.9800044061816072e-01  2.9652122666768199e-01  2.9883265344325549e-01  3.0419210657883594e-01  3.8479071213802130e-01  4.3340335641301042e-01  4.5351545109396313e-01  4.6502867860928715e-01  4.7229617149311948e-01  4.9201106869446676e-01  5.1893054708228359e-01  5.5698956760735840e-01  5.8924581359231976e-01  6.0466945133156957e-01  5.9125398817256591e-01  5.7976978488356334e-01  5.2304146554952158e-01  4.5599850065814168e-01  3.8685109693545633e-01  3.7875722500972198e-01  3.5595418409787039e-01  3.1985376938093329e-01  3.2164708209529874e-01  3.2256505434517430e-01  3.2305236848713953e-01  3.2329253534189989e-01  3.2337448848438277e-01  3.2335394797247285e-01  3.2327125498259546e-01  3.2315621893623886e-01  3.2303031927934894e-01  3.2290877409684809e-01  3.2280259201427297e-01  3.2272029618629378e-01  3.2266818976418449e-01  3.8537629324826411e-01  3.8521320675975534e-01  3.2228825512388931e-01  3.2226537892377877e-01  3.2223183563751318e-01  3.2218941737984225e-01  3.2213877955968306e-01  3.2207999614797245e-01  3.2201293140480175e-01  3.2193740470693144e-01  3.2185322746737421e-01  3.2176018476370682e-01  3.2165800305096159e-01  3.2154632300164177e-01  3.2142468975166755e-01  3.2129257931204663e-01  3.2114949236976742e-01  3.2099514963616144e-01  3.2082978440135557e-01  3.2065449224754788e-01  3.2047156230572948e-01  3.2028447519425601e-01  3.2009749148064276e-01  3.1991505267149567e-01  3.1974124776540458e-01  3.1957953056527855e-01  3.1943274702170921e-01  3.1930324762871615e-01  3.1919285602302233e-01  3.1910277840776397e-01  3.1903368618595962e-01  3.1898605972995231e-01  3.1896069728567145e-01  3.1895915204117242e-01  3.1898382092474586e-01  3.1903754448580612e-01  3.1912282464977026e-01  3.1924095013987602e-01  3.1939130980228575e-01  3.1957103405636489e-01  3.1977494943714879e-01  3.1999575228340926e-01  3.2022428334453285e-01  3.2044984730465553e-01  3.2066067390455416e-01  3.2084451787376711e-01  3.2098921028303279e-01  3.2108256980753985e-01  3.2111135209443498e-01  3.2105840157301296e-01  3.2089975043388635e-01  3.2060448910865591e-01  3.2013583374830035e-01  3.1945031352100522e-01  3.1849789980090498e-01  3.1724125988780788e-01  3.1570163665091300e-01  3.1404616655002660e-01  3.1283176367625959e-01  3.1189438469890973e-01  3.0960662737564126e-01  3.0693719739173636e-01  3.0036308213609259e-01  2.9191798164278288e-01  2.8737648025913187e-01  2.8804838161883606e-01  3.9173982286039427e-01  4.3859155339544337e-01  4.6670032220019597e-01  4.6908912340114267e-01  4.9008048198173004e-01  5.1498404814266874e-01  5.5524067249533271e-01  5.9341636269054543e-01  6.2926078443330502e-01  6.6202348397297639e-01  6.7092080526822628e-01  6.7516456670714253e-01  7.0751662377182500e-01  7.2122986507536724e-01  7.2195211292665351e-01  7.1364768467350126e-01  6.4533866391444339e-01  5.1888349346866713e-01  5.0288379905244807e-01  5.0426115175214070e-01  5.0079707146104591e-01  3.8294172006236177e-01  3.2122859890648320e-01  3.2218090146162670e-01  3.2275437880938640e-01  3.2309024773490541e-01  3.2325223020546534e-01  3.2329007601745197e-01  3.2324757019440531e-01  3.2316018263913637e-01  3.2305434620954582e-01  3.2294904849133904e-01  3.2285803208420710e-01  3.2279120294319535e-01  3.2275322165250298e-01  3.8541875128627179e-01  3.8519643716621071e-01  3.2225522642280108e-01  3.2222948104612559e-01  3.2219147006983856e-01  3.2214359573918089e-01  3.2208690260392597e-01  3.2202160720988077e-01  3.2194754841252643e-01  3.2186444434387157e-01  3.2177199913356153e-01  3.2166992661693966e-01  3.2155793614018913e-01  3.2143570419867978e-01  3.2130284974731632e-01  3.2115894408052037e-01  3.2100361166133745e-01  3.2083678958455936e-01  3.2065914179565247e-01  3.2047258181085586e-01  3.2028081056243674e-01  3.2008920448585926e-01  3.19904001847