<?xml version="1.0"?>
<VTKFile type="UnstructuredGrid"  version="0.1"  >
<UnstructuredGrid>
<Piece  NumberOfPoints="5151" NumberOfCells="10000">
<Points>
<DataArray  type="Float64"  NumberOfComponents="3"  format="ascii">0 0 0  0.02 0 0  0.04 0 0  0.06 0 0  0.08 0 0  0.1 0 0  0.12 0 0  0.14 0 0  0.16 0 0  0.18 0 0  0.2 0 0  0.22 0 0  0.24 0 0  0.26 0 0  0.28 0 0  0.3 0 0  0.32 0 0  0.34 0 0  0.36 0 0  0.38 0 0  0.4 0 0  0.42 0 0  0.44 0 0  0.46 0 0  0.48 0 0  0.5 0 0  0.52 0 0  0.54 0 0  0.5600000000000001 0 0  0.58 0 0  0.6 0 0  0.62 0 0  0.64 0 0  0.66 0 0  0.68 0 0  0.7 0 0  0.72 0 0  0.74 0 0  0.76 0 0  0.78 0 0  0.8 0 0  0.82 0 0  0.84 0 0  0.86 0 0  0.88 0 0  0.9 0 0  0.92 0 0  0.9399999999999999 0 0  0.96 0 0  0.98 0 0  1 0 0  1.02 0 0  1.04 0 0  1.06 0 0  1.08 0 0  1.1 0 0  1.12 0 0  1.14 0 0  1.16 0 0  1.18 0 0  1.2 0 0  1.22 0 0  1.24 0 0  1.26 0 0  1.28 0 0  1.3 0 0  1.32 0 0  1.34 0 0  1.36 0 0  1.38 0 0  1.4 0 0  1.42 0 0  1.44 0 0  1.46 0 0  1.48 0 0  1.5 0 0  1.52 0 0  1.54 0 0  1.56 0 0  1.58 0 0  1.6 0 0  1.62 0 0  1.64 0 0  1.66 0 0  1.68 0 0  1.7 0 0  1.72 0 0  1.74 0 0  1.76 0 0  1.78 0 0  1.8 0 0  1.82 0 0  1.84 0 0  1.86 0 0  1.88 0 0  1.9 0 0  1.92 0 0  1.94 0 0  1.96 0 0  1.98 0 0  2 0 0  0 0.02 0  0.02 0.02 0  0.04 0.02 0  0.06 0.02 0  0.08 0.02 0  0.1 0.02 0  0.12 0.02 0  0.14 0.02 0  0.16 0.02 0  0.18 0.02 0  0.2 0.02 0  0.22 0.02 0  0.24 0.02 0  0.26 0.02 0  0.28 0.02 0  0.3 0.02 0  0.32 0.02 0  0.34 0.02 0  0.36 0.02 0  0.38 0.02 0  0.4 0.02 0  0.42 0.02 0  0.44 0.02 0  0.46 0.02 0  0.48 0.02 0  0.5 0.02 0  0.52 0.02 0  0.54 0.02 0  0.5600000000000001 0.02 0  0.58 0.02 0  0.6 0.02 0  0.62 0.02 0  0.64 0.02 0  0.66 0.02 0  0.68 0.02 0  0.7 0.02 0  0.72 0.02 0  0.74 0.02 0  0.76 0.02 0  0.78 0.02 0  0.8 0.02 0  0.82 0.02 0  0.84 0.02 0  0.86 0.02 0  0.88 0.02 0  0.9 0.02 0  0.92 0.02 0  0.9399999999999999 0.02 0  0.96 0.02 0  0.98 0.02 0  1 0.02 0  1.02 0.02 0  1.04 0.02 0  1.06 0.02 0  1.08 0.02 0  1.1 0.02 0  1.12 0.02 0  1.14 0.02 0  1.16 0.02 0  1.18 0.02 0  1.2 0.02 0  1.22 0.02 0  1.24 0.02 0  1.26 0.02 0  1.28 0.02 0  1.3 0.02 0  1.32 0.02 0  1.34 0.02 0  1.36 0.02 0  1.38 0.02 0  1.4 0.02 0  1.42 0.02 0  1.44 0.02 0  1.46 0.02 0  1.48 0.02 0  1.5 0.02 0  1.52 0.02 0  1.54 0.02 0  1.56 0.02 0  1.58 0.02 0  1.6 0.02 0  1.62 0.02 0  1.64 0.02 0  1.66 0.02 0  1.68 0.02 0  1.7 0.02 0  1.72 0.02 0  1.74 0.02 0  1.76 0.02 0  1.78 0.02 0  1.8 0.02 0  1.82 0.02 0  1.84 0.02 0  1.86 0.02 0  1.88 0.02 0  1.9 0.02 0  1.92 0.02 0  1.94 0.02 0  1.96 0.02 0  1.98 0.02 0  2 0.02 0  0 0.04 0  0.02 0.04 0  0.04 0.04 0  0.06 0.04 0  0.08 0.04 0  0.1 0.04 0  0.12 0.04 0  0.14 0.04 0  0.16 0.04 0  0.18 0.04 0  0.2 0.04 0  0.22 0.04 0  0.24 0.04 0  0.26 0.04 0  0.28 0.04 0  0.3 0.04 0  0.32 0.04 0  0.34 0.04 0  0.36 0.04 0  0.38 0.04 0  0.4 0.04 0  0.42 0.04 0  0.44 0.04 0  0.46 0.04 0  0.48 0.04 0  0.5 0.04 0  0.52 0.04 0  0.54 0.04 0  0.5600000000000001 0.04 0  0.58 0.04 0  0.6 0.04 0  0.62 0.04 0  0.64 0.04 0  0.66 0.04 0  0.68 0.04 0  0.7 0.04 0  0.72 0.04 0  0.74 0.04 0  0.76 0.04 0  0.78 0.04 0  0.8 0.04 0  0.82 0.04 0  0.84 0.04 0  0.86 0.04 0  0.88 0.04 0  0.9 0.04 0  0.92 0.04 0  0.9399999999999999 0.04 0  0.96 0.04 0  0.98 0.04 0  1 0.04 0  1.02 0.04 0  1.04 0.04 0  1.06 0.04 0  1.08 0.04 0  1.1 0.04 0  1.12 0.04 0  1.14 0.04 0  1.16 0.04 0  1.18 0.04 0  1.2 0.04 0  1.22 0.04 0  1.24 0.04 0  1.26 0.04 0  1.28 0.04 0  1.3 0.04 0  1.32 0.04 0  1.34 0.04 0  1.36 0.04 0  1.38 0.04 0  1.4 0.04 0  1.42 0.04 0  1.44 0.04 0  1.46 0.04 0  1.48 0.04 0  1.5 0.04 0  1.52 0.04 0  1.54 0.04 0  1.56 0.04 0  1.58 0.04 0  1.6 0.04 0  1.62 0.04 0  1.64 0.04 0  1.66 0.04 0  1.68 0.04 0  1.7 0.04 0  1.72 0.04 0  1.74 0.04 0  1.76 0.04 0  1.78 0.04 0  1.8 0.04 0  1.82 0.04 0  1.84 0.04 0  1.86 0.04 0  1.88 0.04 0  1.9 0.04 0  1.92 0.04 0  1.94 0.04 0  1.96 0.04 0  1.98 0.04 0  2 0.04 0  0 0.06 0  0.02 0.06 0  0.04 0.06 0  0.06 0.06 0  0.08 0.06 0  0.1 0.06 0  0.12 0.06 0  0.14 0.06 0  0.16 0.06 0  0.18 0.06 0  0.2 0.06 0  0.22 0.06 0  0.24 0.06 0  0.26 0.06 0  0.28 0.06 0  0.3 0.06 0  0.32 0.06 0  0.34 0.06 0  0.36 0.06 0  0.38 0.06 0  0.4 0.06 0  0.42 0.06 0  0.44 0.06 0  0.46 0.06 0  0.48 0.06 0  0.5 0.06 0  0.52 0.06 0  0.54 0.06 0  0.5600000000000001 0.06 0  0.58 0.06 0  0.6 0.06 0  0.62 0.06 0  0.64 0.06 0  0.66 0.06 0  0.68 0.06 0  0.7 0.06 0  0.72 0.06 0  0.74 0.06 0  0.76 0.06 0  0.78 0.06 0  0.8 0.06 0  0.82 0.06 0  0.84 0.06 0  0.86 0.06 0  0.88 0.06 0  0.9 0.06 0  0.92 0.06 0  0.9399999999999999 0.06 0  0.96 0.06 0  0.98 0.06 0  1 0.06 0  1.02 0.06 0  1.04 0.06 0  1.06 0.06 0  1.08 0.06 0  1.1 0.06 0  1.12 0.06 0  1.14 0.06 0  1.16 0.06 0  1.18 0.06 0  1.2 0.06 0  1.22 0.06 0  1.24 0.06 0  1.26 0.06 0  1.28 0.06 0  1.3 0.06 0  1.32 0.06 0  1.34 0.06 0  1.36 0.06 0  1.38 0.06 0  1.4 0.06 0  1.42 0.06 0  1.44 0.06 0  1.46 0.06 0  1.48 0.06 0  1.5 0.06 0  1.52 0.06 0  1.54 0.06 0  1.56 0.06 0  1.58 0.06 0  1.6 0.06 0  1.62 0.06 0  1.64 0.06 0  1.66 0.06 0  1.68 0.06 0  1.7 0.06 0  1.72 0.06 0  1.74 0.06 0  1.76 0.06 0  1.78 0.06 0  1.8 0.06 0  1.82 0.06 0  1.84 0.06 0  1.86 0.06 0  1.88 0.06 0  1.9 0.06 0  1.92 0.06 0  1.94 0.06 0  1.96 0.06 0  1.98 0.06 0  2 0.06 0  0 0.08 0  0.02 0.08 0  0.04 0.08 0  0.06 0.08 0  0.08 0.08 0  0.1 0.08 0  0.12 0.08 0  0.14 0.08 0  0.16 0.08 0  0.18 0.08 0  0.2 0.08 0  0.22 0.08 0  0.24 0.08 0  0.26 0.08 0  0.28 0.08 0  0.3 0.08 0  0.32 0.08 0  0.34 0.08 0  0.36 0.08 0  0.38 0.08 0  0.4 0.08 0  0.42 0.08 0  0.44 0.08 0  0.46 0.08 0  0.48 0.08 0  0.5 0.08 0  0.52 0.08 0  0.54 0.08 0  0.5600000000000001 0.08 0  0.58 0.08 0  0.6 0.08 0  0.62 0.08 0  0.64 0.08 0  0.66 0.08 0  0.68 0.08 0  0.7 0.08 0  0.72 0.08 0  0.74 0.08 0  0.76 0.08 0  0.78 0.08 0  0.8 0.08 0  0.82 0.08 0  0.84 0.08 0  0.86 0.08 0  0.88 0.08 0  0.9 0.08 0  0.92 0.08 0  0.9399999999999999 0.08 0  0.96 0.08 0  0.98 0.08 0  1 0.08 0  1.02 0.08 0  1.04 0.08 0  1.06 0.08 0  1.08 0.08 0  1.1 0.08 0  1.12 0.08 0  1.14 0.08 0  1.16 0.08 0  1.18 0.08 0  1.2 0.08 0  1.22 0.08 0  1.24 0.08 0  1.26 0.08 0  1.28 0.08 0  1.3 0.08 0  1.32 0.08 0  1.34 0.08 0  1.36 0.08 0  1.38 0.08 0  1.4 0.08 0  1.42 0.08 0  1.44 0.08 0  1.46 0.08 0  1.48 0.08 0  1.5 0.08 0  1.52 0.08 0  1.54 0.08 0  1.56 0.08 0  1.58 0.08 0  1.6 0.08 0  1.62 0.08 0  1.64 0.08 0  1.66 0.08 0  1.68 0.08 0  1.7 0.08 0  1.72 0.08 0  1.74 0.08 0  1.76 0.08 0  1.78 0.08 0  1.8 0.08 0  1.82 0.08 0  1.84 0.08 0  1.86 0.08 0  1.88 0.08 0  1.9 0.08 0  1.92 0.08 0  1.94 0.08 0  1.96 0.08 0  1.98 0.08 0  2 0.08 0  0 0.1 0  0.02 0.1 0  0.04 0.1 0  0.06 0.1 0  0.08 0.1 0  0.1 0.1 0  0.12 0.1 0  0.14 0.1 0  0.16 0.1 0  0.18 0.1 0  0.2 0.1 0  0.22 0.1 0  0.24 0.1 0  0.26 0.1 0  0.28 0.1 0  0.3 0.1 0  0.32 0.1 0  0.34 0.1 0  0.36 0.1 0  0.38 0.1 0  0.4 0.1 0  0.42 0.1 0  0.44 0.1 0  0.46 0.1 0  0.48 0.1 0  0.5 0.1 0  0.52 0.1 0  0.54 0.1 0  0.5600000000000001 0.1 0  0.58 0.1 0  0.6 0.1 0  0.62 0.1 0  0.64 0.1 0  0.66 0.1 0  0.68 0.1 0  0.7 0.1 0  0.72 0.1 0  0.74 0.1 0  0.76 0.1 0  0.78 0.1 0  0.8 0.1 0  0.82 0.1 0  0.84 0.1 0  0.86 0.1 0  0.88 0.1 0  0.9 0.1 0  0.92 0.1 0  0.9399999999999999 0.1 0  0.96 0.1 0  0.98 0.1 0  1 0.1 0  1.02 0.1 0  1.04 0.1 0  1.06 0.1 0  1.08 0.1 0  1.1 0.1 0  1.12 0.1 0  1.14 0.1 0  1.16 0.1 0  1.18 0.1 0  1.2 0.1 0  1.22 0.1 0  1.24 0.1 0  1.26 0.1 0  1.28 0.1 0  1.3 0.1 0  1.32 0.1 0  1.34 0.1 0  1.36 0.1 0  1.38 0.1 0  1.4 0.1 0  1.42 0.1 0  1.44 0.1 0  1.46 0.1 0  1.48 0.1 0  1.5 0.1 0  1.52 0.1 0  1.54 0.1 0  1.56 0.1 0  1.58 0.1 0  1.6 0.1 0  1.62 0.1 0  1.64 0.1 0  1.66 0.1 0  1.68 0.1 0  1.7 0.1 0  1.72 0.1 0  1.74 0.1 0  1.76 0.1 0  1.78 0.1 0  1.8 0.1 0  1.82 0.1 0  1.84 0.1 0  1.86 0.1 0  1.88 0.1 0  1.9 0.1 0  1.92 0.1 0  1.94 0.1 0  1.96 0.1 0  1.98 0.1 0  2 0.1 0  0 0.12 0  0.02 0.12 0  0.04 0.12 0  0.06 0.12 0  0.08 0.12 0  0.1 0.12 0  0.12 0.12 0  0.14 0.12 0  0.16 0.12 0  0.18 0.12 0  0.2 0.12 0  0.22 0.12 0  0.24 0.12 0  0.26 0.12 0  0.28 0.12 0  0.3 0.12 0  0.32 0.12 0  0.34 0.12 0  0.36 0.12 0  0.38 0.12 0  0.4 0.12 0  0.42 0.12 0  0.44 0.12 0  0.46 0.12 0  0.48 0.12 0  0.5 0.12 0  0.52 0.12 0  0.54 0.12 0  0.5600000000000001 0.12 0  0.58 0.12 0  0.6 0.12 0  0.62 0.12 0  0.64 0.12 0  0.66 0.12 0  0.68 0.12 0  0.7 0.12 0  0.72 0.12 0  0.74 0.12 0  0.76 0.12 0  0.78 0.12 0  0.8 0.12 0  0.82 0.12 0  0.84 0.12 0  0.86 0.12 0  0.88 0.12 0  0.9 0.12 0  0.92 0.12 0  0.9399999999999999 0.12 0  0.96 0.12 0  0.98 0.12 0  1 0.12 0  1.02 0.12 0  1.04 0.12 0  1.06 0.12 0  1.08 0.12 0  1.1 0.12 0  1.12 0.12 0  1.14 0.12 0  1.16 0.12 0  1.18 0.12 0  1.2 0.12 0  1.22 0.12 0  1.24 0.12 0  1.26 0.12 0  1.28 0.12 0  1.3 0.12 0  1.32 0.12 0  1.34 0.12 0  1.36 0.12 0  1.38 0.12 0  1.4 0.12 0  1.42 0.12 0  1.44 0.12 0  1.46 0.12 0  1.48 0.12 0  1.5 0.12 0  1.52 0.12 0  1.54 0.12 0  1.56 0.12 0  1.58 0.12 0  1.6 0.12 0  1.62 0.12 0  1.64 0.12 0  1.66 0.12 0  1.68 0.12 0  1.7 0.12 0  1.72 0.12 0  1.74 0.12 0  1.76 0.12 0  1.78 0.12 0  1.8 0.12 0  1.82 0.12 0  1.84 0.12 0  1.86 0.12 0  1.88 0.12 0  1.9 0.12 0  1.92 0.12 0  1.94 0.12 0  1.96 0.12 0  1.98 0.12 0  2 0.12 0  0 0.14 0  0.02 0.14 0  0.04 0.14 0  0.06 0.14 0  0.08 0.14 0  0.1 0.14 0  0.12 0.14 0  0.14 0.14 0  0.16 0.14 0  0.18 0.14 0  0.2 0.14 0  0.22 0.14 0  0.24 0.14 0  0.26 0.14 0  0.28 0.14 0  0.3 0.14 0  0.32 0.14 0  0.34 0.14 0  0.36 0.14 0  0.38 0.14 0  0.4 0.14 0  0.42 0.14 0  0.44 0.14 0  0.46 0.14 0  0.48 0.14 0  0.5 0.14 0  0.52 0.14 0  0.54 0.14 0  0.5600000000000001 0.14 0  0.58 0.14 0  0.6 0.14 0  0.62 0.14 0  0.64 0.14 0  0.66 0.14 0  0.68 0.14 0  0.7 0.14 0  0.72 0.14 0  0.74 0.14 0  0.76 0.14 0  0.78 0.14 0  0.8 0.14 0  0.82 0.14 0  0.84 0.14 0  0.86 0.14 0  0.88 0.14 0  0.9 0.14 0  0.92 0.14 0  0.9399999999999999 0.14 0  0.96 0.14 0  0.98 0.14 0  1 0.14 0  1.02 0.14 0  1.04 0.14 0  1.06 0.14 0  1.08 0.14 0  1.1 0.14 0  1.12 0.14 0  1.14 0.14 0  1.16 0.14 0  1.18 0.14 0  1.2 0.14 0  1.22 0.14 0  1.24 0.14 0  1.26 0.14 0  1.28 0.14 0  1.3 0.14 0  1.32 0.14 0  1.34 0.14 0  1.36 0.14 0  1.38 0.14 0  1.4 0.14 0  1.42 0.14 0  1.44 0.14 0  1.46 0.14 0  1.48 0.14 0  1
[...]
<PointData  Scalars="sols[i]"> 
<DataArray  type="Float64"  Name="sols[i]"  format="ascii">1.5728189286001951e-01  1.0447028346086321e-01  1.0447028720371399e-01  1.0447029296902344e-01  1.0447030070631730e-01  1.0447031020897095e-01  1.0447032086390996e-01  1.0447033157677488e-01  1.0447034094540975e-01  1.0447034757760550e-01  1.0447035043228545e-01  1.0447034910083837e-01  1.0447034398181856e-01  1.0447033632619755e-01  1.0447032814514130e-01  1.0447032198370163e-01  1.0447032057673339e-01  1.0447032642132846e-01  1.0447034132523578e-01  1.0447036602363090e-01  1.0447039999544760e-01  1.0447044165028532e-01  1.0447048908820609e-01  1.0447054164257639e-01  1.0447060237946758e-01  1.0447068161944514e-01  1.0447080133924709e-01  1.0447099997455087e-01  1.0447133666387415e-01  1.0447189335294964e-01  1.0447277246005113e-01  1.0447408707930612e-01  1.0447594013887000e-01  1.0447838881517285e-01  1.0448139131004970e-01  1.0448473564635480e-01  1.0448795579261898e-01  1.0449025113457139e-01  1.0449044284232448e-01  1.0448702393037712e-01  1.0447837998786719e-01  1.0446324605853395e-01  1.0444134816426388e-01  1.0441388212423712e-01  1.0438325805788705e-01  1.0435201949714852e-01  1.0432191498822319e-01  1.0429386275611299e-01  1.0426802733985630e-01  1.0424404534454292e-01  1.0422164766967459e-01  1.0420168446220360e-01  1.0418629731389027e-01  1.0417812686135036e-01  1.0417955541351416e-01  1.0419204438895406e-01  1.0421533804347902e-01  1.0424709920287999e-01  1.0428353275687517e-01  1.0432058811017177e-01  1.0435498811263912e-01  1.0438468803930932e-01  1.0440881405104067e-01  1.0442733864459958e-01  1.0444072706326485e-01  1.0444967277317435e-01  1.0445494094120031e-01  1.0445729108003729e-01  1.0445744246269614e-01  1.0445605657944564e-01  1.0445372419142029e-01  1.0445095374675430e-01  1.0444816221819141e-01  1.0444567030109614e-01  1.0444370314378131e-01  1.0444239660071376e-01  1.0444180803330139e-01  1.0444193014189589e-01  1.0444270617963655e-01  1.0444404506466366e-01  1.0444583524459784e-01  1.0444795656550848e-01  1.0445028977693650e-01  1.0445272361715655e-01  1.0445515964833170e-01  1.0445751514933302e-01  1.0445972443633769e-01  1.0446173898528022e-01  1.0446352669384243e-01  1.0446507056011284e-01  1.0446636698349131e-01  1.0446742382126445e-01  1.0446825827032391e-01  1.0446889459645664e-01  1.0446936171345002e-01  1.0446969063140257e-01  1.0446991185261995e-01  1.0447005287600612e-01  1.0447013601501992e-01  1.0447017669718391e-01  2.6654424730798359e-01  1.0447028322387643e-01  3.7873681686022558e-02  3.7873682299601794e-02  3.7873682767298307e-02  3.7873682562106395e-02  3.7873681153417292e-02  3.7873677974210138e-02  3.7873672376915010e-02  3.7873663665779045e-02  3.7873651201037313e-02  3.7873634534558664e-02  3.7873613539352188e-02  3.7873588507679669e-02  3.7873560203303992e-02  3.7873529860826788e-02  3.7873499130390162e-02  3.7873469970928664e-02  3.7873444501067201e-02  3.7873424824517631e-02  3.7873412856634210e-02  3.7873410189950683e-02  3.7873418047247295e-02  3.7873437377747551e-02  3.7873469150536174e-02  3.7873514882752833e-02  3.7873577400883936e-02  3.7873661763790048e-02  3.7873776170068596e-02  3.7873932528657533e-02  3.7874146197204327e-02  3.7874434207027227e-02  3.7874811132429784e-02  3.7875281683011908e-02  3.7875829186319758e-02  3.7876399514896568e-02  3.7876880903280674e-02  3.7877081831282453e-02  3.7876712232002313e-02  3.7875378346678180e-02  3.7872608788750012e-02  3.7867937052258827e-02  3.7861064429612359e-02  3.7852086250173576e-02  3.7841640017451945e-02  3.7830725369350317e-02  3.7820174429637879e-02  3.7810274028245418e-02  3.7800927790499782e-02  3.7791860749625164e-02  3.7782794642936636e-02  3.7773626191446301e-02  3.7764654665912792e-02  3.7756661648016325e-02  3.7750766407723499e-02  3.7748219345644367e-02  3.7750100109285048e-02  3.7756878799871871e-02  3.7768073015343899e-02  3.7782358527953003e-02  3.7798022288579744e-02  3.7813450244059757e-02  3.7827442158864043e-02  3.7839303274711307e-02  3.7848776002319555e-02  3.7855907466853460e-02  3.7860922718614722e-02  3.7864132608064135e-02  3.7865876953823284e-02  3.7866492473283858e-02  3.7866294777597224e-02  3.7865567509765802e-02  3.7864555349585896e-02  3.7863459805877707e-02  3.7862437597010391e-02  3.7861601534461317e-02  3.7861023642294871e-02  3.7860740037861655e-02  3.7860756974147917e-02  3.7861057421019237e-02  3.7861607622617428e-02  3.7862363181987498e-02  3.7863274362388906e-02  3.7864290433293438e-02  3.7865363010328959e-02  3.7866448432327469e-02  3.7867509281826230e-02  3.7868515189502967e-02  3.7869443072844504e-02  3.7870276951048755e-02  3.7871007457999400e-02  3.7871631148880924e-02  3.7872149668676906e-02  3.7872568827028961e-02  3.7872897608251375e-02  3.7873147141932788e-02  3.7873329670393932e-02  3.7873457567507617e-02  3.7873542462940883e-02  3.7873594464438047e-02  3.7873621413115788e-02  1.0447017709039050e-01  1.0447028616368614e-01  3.7873681992389718e-02  3.7873681451920202e-02  3.7873679421600109e-02  3.7873674869268556e-02  3.7873666918328032e-02  3.7873654921704664e-02  3.7873638420140590e-02  3.7873617090338402e-02  3.7873590740994896e-02  3.7873559356310670e-02  3.7873523163451682e-02  3.7873482699377715e-02  3.7873438859085208e-02  3.7873392914973394e-02  3.7873346503819579e-02  3.7873301583785213e-02  3.7873260369459670e-02  3.7873225258467390e-02  3.7873198768280443e-02  3.7873183505484805e-02  3.7873182189839288e-02  3.7873197749101237e-02  3.7873233484101633e-02  3.7873293273077216e-02  3.7873381736742845e-02  3.7873504220364299e-02  3.7873666370273715e-02  3.7873873001475641e-02  3.7874125892296481e-02  3.7874420135856748e-02  3.7874738772173885e-02  3.7875045669502179e-02  3.7875277060830125e-02  3.7875332785467765e-02  3.7875069108642023e-02  3.7874295933554160e-02  3.7872782270619861e-02  3.7870275348128118e-02  3.7866542214270868e-02  3.7861451116041125e-02  3.7855116244749396e-02  3.7848084572218735e-02  3.7841367648289922e-02  3.7835988734818464e-02  3.7832164662552112e-02  3.7829042710955246e-02  3.7825415538875404e-02  3.7820292189946973e-02  3.7813376922216251e-02  3.7805088544217741e-02  3.7796002796212841e-02  3.7786566166816006e-02  3.7777515856016387e-02  3.7770179027748291e-02  3.7766176757910892e-02  3.7766791375530046e-02  3.7772279316033164e-02  3.7781847095989196e-02  3.7794055710909540e-02  3.7807299156052437e-02  3.7820190878381794e-02  3.7831768049591229e-02  3.7841515590469714e-02  3.7849279268387367e-02  3.7855144604642073e-02  3.7859329904726721e-02  3.7862110523225641e-02  3.7863772560725407e-02  3.7864587506351063e-02  3.7864799575126944e-02  3.7864620021796504e-02  3.7864225152589470e-02  3.7863756394138658e-02  3.7863321676812792e-02  3.7862997802025934e-02  3.7862833606789395e-02  3.7862853753102083e-02  3.7863062936313516e-02  3.7863450272672003e-02  3.7863993616517336e-02  3.7864663579424390e-02  3.7865427072084686e-02  3.7866250253284370e-02  3.7867100836100342e-02  3.7867949759037747e-02  3.7868772272993852e-02  3.7869548521527768e-02  3.7870263703199479e-02  3.7870907904017433e-02  3.7871475679843433e-02  3.7871965457985352e-02  3.7872378819294686e-02  3.7872719721415024e-02  3.7872993732412541e-02  3.7873207356463018e-02  3.7873367527242241e-02  3.7873481271119738e-02  3.7873555348526301e-02  3.7873595524146618e-02  1.0447013819876810e-01  1.0447028998359657e-01  3.7873681671678656e-02  3.7873678539464717e-02  3.7873672122707376e-02  3.7873661268524914e-02  3.7873645130261181e-02  3.7873623271427598e-02  3.7873595638863534e-02  3.7873562462900377e-02  3.7873524166586126e-02  3.7873481319062839e-02  3.7873434630328100e-02  3.7873384969816730e-02  3.7873333390875681e-02  3.7873281148837916e-02  3.7873229707547439e-02  3.7873180735981324e-02  3.7873136102415175e-02  3.7873097877918656e-02  3.7873068362992569e-02  3.7873050149387438e-02  3.7873046221405013e-02  3.7873060084604275e-02  3.7873095882065375e-02  3.7873158417381037e-02  3.7873252949779015e-02  3.7873384565142360e-02  3.7873556869394143e-02  3.7873769720508113e-02  3.7874015748415937e-02  3.7874275557863733e-02  3.7874511823616140e-02  3.7874663011630401e-02  3.7874638179969597e-02  3.7874315101851914e-02  3.7873544516977019e-02  3.7872163206414011e-02  3.7870017387774645e-02  3.7866996035907888e-02  3.7863075106520212e-02  3.7858392165273771e-02  3.7853405370455465e-02  3.7849131038517607e-02  3.7847113199239918e-02  3.7848562883103627e-02  3.7852982771141089e-02  3.7857954489735848e-02  3.7860817916381344e-02  3.7859856491101462e-02  3.7855125317213537e-02  3.7848349982457903e-02  3.7840542958046418e-02  3.7830552359275564e-02  3.7817432384788734e-02  3.7802538488338699e-02  3.7788916621830898e-02  3.7779853339889501e-02  3.7776971558448155e-02  3.7780074204830011e-02  3.7787798443719899e-02  3.7798293292029002e-02  3.7809798415267715e-02  3.7820983663356803e-02  3.7831034078508630e-02  3.7839572952982063e-02  3.7846526415353271e-02  3.7851995809838515e-02  3.7856164556921902e-02  3.7859241189544167e-02  3.7861429732082515e-02  3.7862917021006255e-02  3.7863868824611131e-02  3.7864429629528441e-02  3.7864723426432767e-02  3.7864854448163954e-02  3.7864907702703093e-02  3.7864949520728858e-02  3.7865028403590489e-02  3.7865176363997027e-02  3.7865410804628227e-02  3.7865736845921504e-02  3.7866149926851306e-02  3.7866638469313194e-02  3.7867186409132378e-02  3.7867775438575016e-02  3.7868386859826249e-02  3.7869003002875379e-02  3.7869608206256511e-02  3.7870189391727836e-02  3.7870736284640515e-02  3.7871241343548384e-02  3.7871699470049251e-02  3.7872107577592101e-02  3.7872464108925051e-02  3.7872768603556678e-02  3.7873021414884023e-02  3.7873223626970126e-02  3.7873377066845230e-02  3.7873484014618285e-02  3.7873546017718314e-02  1.0447005927564307e-01  1.0447029354376654e-01  3.7873679746377613e-02  3.7873672011771706e-02  3.7873659108856511e-02  3.7873640240998332e-02  3.7873614934338509e-02  3.7873583195439424e-02  3.7873545502090919e-02  3.7873502688539437e-02  3.7873455805630396e-02  3.7873406007830415e-02  3.7873354482357374e-02  3.7873302413487520e-02  3.7873250968167183e-02  3.7873201291281078e-02  3.7873154505128029e-02  3.7873111714730422e-02  3.7873074026864545e-02  3.7873042594984474e-02  3.7873018703189765e-02  3.7873003898290528e-02  3.7873000167570184e-02  3.7873010138477554e-02  3.7873037242934997e-02  3.7873085742406894e-02  3.7873160452565502e-02  3.7873265946250914e-02  3.7873404967543420e-02  3.7873575788643761e-02  3.7873768332396487e-02  3.7873959130695030e-02  3.7874105660923883e-02  3.7874141335841632e-02  3.7873973350323220e-02  3.7873486434604316e-02  3.7872555742397708e-02  3.7871070738074337e-02  3.7868968232472523e-02  3.7866267210316343e-02  3.7863097747261057e-02  3.7859754193220324e-02  3.7856903614912743e-02  3.7856006834895338e-02  3.7859260593117269e-02  3.7868030436214138e-02  3.7880692123824486e-02  3.7892573527577529e-02  3.7899191567460008e-02  7.3588869806302845e-02  1.0451093691824036e-01  1.0448089800927424e-01  1.0445203391859793e-01  7.3527120620372394e-02  3.7872158781435974e-02  3.7849316748783765e-02  3.7821465069689149e-02  3.7797469793251479e-02  3.7782340274980057e-02  3.7776798008711789e-02  3.7779180369165485e-02  3.7786794730209947e-02  3.7797042891539130e-02  3.7807996562077645e-02  3.7818477857743352e-02  3.7827899124425107e-02  3.7836052751186247e-02  3.7842938161768341e-02  3.7848647799492111e-02  3.7853304442060240e-02  3.7857033428869480e-02  3.7859954337686443e-02  3.7862180998654182e-02  3.7863823330932175e-02  3.7864988063371130e-02  3.7865777670335450e-02  3.7866287999165235e-02  3.7866605439726753e-02  3.7866804421652592e-02  3.7866945764536662e-02  3.7867076106958088e-02  3.7867228388014589e-02  3.7867423185631591e-02  3.7867670632115387e-02  3.7867972613924938e-02  3.7868324996944029e-02  3.7868719678342461e-02  3.7869146333366084e-02  3.7869593787960253e-02  3.7870050999788941e-02  3.7870507669513165e-02  3.7870954533068456e-02  3.7871383407752229e-02  3.7871787083454504e-02  3.7872159165469571e-02  3.7872493979500599e-02  3.7872786621594920e-02  3.7873033136230812e-02  3.7873230585295382e-02  3.7873376423140266e-02  3.7873466390047489e-02  1.0446992706454589e-01  1.0447029484318099e-01  3.7873674985676203e-02  3.7873660284983977e-02  3.7873638792642099e-02  3.7873610518033972e-02  3.7873575495879129e-02  3.7873534221716465e-02  3.7873487689907025e-02  3.7873437275403009e-02  3.7873384567189985e-02  3.7873331210449564e-02  3.7873278782143159e-02  3.7873228702243286e-02  3.7873182172449484e-02  3.7873140133441466e-02  3.7873103236455923e-02  3.7873071831894360e-02  3.7873045984507379e-02  3.7873025529777546e-02  3.7873010187762061e-02  3.7872999746876829e-02  3.7872994318525054e-02  3.7872994641494233e-02  3.7873002380457918e-02  3.7873020314984476e-02  3.7873052256718068e-02  3.7873102471595789e-02  3.7873174340324188e-02  3.7873267999120212e-02  3.7873376820664405e-02  3.7873482901069552e-02  3.7873552298432013e-02  3.7873531667040980e-02  3.7873349047425377e-02  3.7872922489255369e-02  3.7872179983161933e-02  3.7871091402159149e-02  3.7869706285159128e-02  3.7868180703460166e-02  3.7866772524707416e-02  3.7865847221338129e-02  3.7866136725808311e-02  3.7869412840006174e-02  3.7878322694590447e-02  3.7893744933277719e-02  3.7912065006924872e-02  7.3648390490729465e-02  1.0464805067075666e-01  1.5754792430615014e-01  4.9973190657099309e-01  4.9948693539359379e-01  4.9922900031262107e-01  4.9880046101258213e-01  1.5731889927018219e-01  7.3561487238043469e-02  3.7874652341922541e-02  3.7827876795266585e-02  3.7792549310434402e-02  3.7773458060276696e-02  3.7768531473274677e-02  3.7772975286835882e-02  3.7782282284490466e-02  3.7793379990347403e-02  3.7804555005836800e-02  3.7815007079696150e-02  3.7824440681971126e-02  3.7832794439759808e-02  3.7840093168160872e-02  3.7846382187800356e-02  3.7851707953357704e-02  3.7856119658111552e-02  3.7859676467403527e-02  3.7862452690121118e-02  3.7864538368333318e-02  3.7866035710668558e-02  3.7867053016798095e-02  3.7867697876684078e-02  3.7868071030900272e-02  3.7868261717925830e-02  3.7868344820845758e-02  3.7868379747884331e-02  3.7868410752489687e-02  3.7868468296568779e-02  3.7868571050092135e-02  3.7868728167292795e-02  3.7868941555747181e-02  3.7869207938976149e-02  3.7869520592494717e-02  3.7869870700620374e-02  3.7870248334887245e-02  3.7870643095998684e-02  3.7871044492546857e-02  3.7871442152817320e-02  3.7871825978120804e-02  3.7872186335810784e-02  3.7872514333060922e-02  3.7872802071537613e-02  3.7873042526451101e-02  3.7873228346560921e-02  3.7873348698554410e-02  1.0446972297039872e-01  1.0447029057025783e-01  3.7873665826698620e-02  3.7873641845610463e-02  3.7873609950548712e-02  3.7873571350105183e-02  3.7873526551182500e-02  3.7873476430739447e-02  3.7873422381264232e-02  3.7873366188393459e-02  3.7873309841530450e-02  3.7873255342259063e-02  3.7873204536577394e-02  3.7873158977403371e-02  3.7873119813716057e-02  3.7873087700667656e-02  3.7873062728714768e-02  3.7873044376607573e-02  3.7873031500680956e-02  3.7873022379438431e-02  3.7873014836080680e-02  3.7873006460285422e-02  3.7872994941739707e-02  3.7872978508914024e-02  3.7872956434834015e-02  3.7872929525913673e-02  3.7872900452068876e-02  3.7872873714440869e-02  3.7872855000613270e-02  3.7872849684287405e-02  3.7872860351499976e-02  3.7872883572981381e-02  3.7872906802311743e-02  3.7872907332745016e-02  3.7872856590554789e-02  3.7872734166075596e-02  3.7872555635981998e-02  3.7872414186243757e-02  3.7872525418842604e-02  3.7873246137905374e-02  3.7875022818328351e-02  3.7878313949508489e-02  3.7883872097573407e-02  3.7893338772622590e-02  3.7908120321360463e-02  3.7926265208605293e-02  7.3677168135976662e-02  1.5769725260107875e-01  5.0035687773238580e-01  5.0028412667590161e-01  5.0012753419526301e-01  4.9997406978043019e-01  4.9976867106353051e-01  4.9964759141839149e-01  4.9905710474944720e-01  4.9759146544273070e-01  1.0448904033091498e-01  3.7888621158521027e-02  3.7818962065375439e-02  3.7774006967585629e-02  3.7756574807576694e-02  3.7756795946351347e-02  3.7765543639210176e-02  3.7777359198810534e-02  3.7789629392256253e-02  3.7801322198875935e-02  3.7812122112922668e-02  3.7821970527976520e-02  3.7830863782794599e-02  3.7838788145484595e-02  3.7845717156921845e-02  3.7851630035504458e-02  3.7856530357203946e-02  3.7860456494960462e-02  3.7863482469755301e-02  3.7865711481929444e-02  3.7867265507728641e-02  3.7868274017204911e-02  3.7868863940648659e-02  3.7869152008859937e-02  3.7869239790845215e-02  3.7869211230341780e-02  3.7869132210152152e-02  3.7869051581654607e-02  3.7869003117666056e-02  3.7869007927272089e-02  3.7869076975657633e-02  3.7869213458277561e-02  3.7869414874606148e-02  3.7869674726762302e-02  3.7869983831564799e-02  3.7870331282649994e-02  3.7870705134310602e-02  3.7871092900838649e-02  3.7871481969544665e-02  3.7871859998943713e-02  3.7872215292316616e-02  3.7872536973336250e-02  3.7872814539042246e-02  3.7873036090368031e-02  3.7873184483126758e-02  1.0446942527449413e-01  1.0447027588157796e-01  3.7873650290208574e-02  3.7873615232145656e-02  3.7873571771046728e-02  3.7873522599690554e-02  3.7873468550772983e-02  3.7873410691969082e-02  3.7873350643270146e-02  3.7873290444218083e-02  3.7873232334921514e-02  3.7873178533079400e-02  3.7873131029302662e-02  3.7873091405862265e-02  3.7873060676865501e-02  3.7873039146699129e-02  3.7873026287310728e-02  3.7873020641999877e-02  3.7873019772117156e-02  3.7873020271711466e-02  3.7873017881949494e-02  3.7873007739956555e-02  3.7872984793090848e-02  3.7872944396661147e-02  3.7872883087784942e-02  3.7872799488457835e-02  3.7872695237659647e-02  3.7872575792432361e-02  3.7872450890529825e-02  3.7872334472841079e-02  3.7872243994509169e-02  3.7872199420709733e-02  3.7872222946699993e-02  3.7872341716559003e-02  3.7872597485368711e-02  3.7873068760497841e-02  3.7873911036582629e-02  3.7875416398126319e-02  3.7878080307964676e-02  3.7882635029284649e-02  3.7889966514956804e-02  3.7900898486997764e-02  3.7916401501704590e-02  3.7937220415275599e-02  3.7958240993504519e-02  7.3722691478205427e-02  1.5768742737135677e-01  5.0021430602280059e-01  5.0048083436743707e-01  4.9998280815282736e-01  4.9998280815328999e-01  4.9998280815538004e-01  4.9998280815611085e-01  4.9998280815198470e-01  4.9998280814867541e-01  4.9878294471008450e-01  4.9613381487069635e-01  1.0449054460305207e-01  3.7888015768834056e-02  3.7788479953071615e-02  3.7744881730126897e-02  3.7738068917401939e-02  3.7746681588686055e-02  3.7760013435489230e-02  3.7773896519792190e-02  3.7787070671337283e-02  3.7799317828561725e-02  3.7810672626288566e-02  3.7821151526616192e-02  3.7830701782313965e-02  3.7839229272983603e-02  3.7846642734126412e-02  3.7852888695456367e-02  3.7857969132838634e-02  3.7861942836277487e-02  3.7864915509503966e-02  3.7867024324134579e-02  3.7868421589117823e-02  3.7869260534306365e-02  3.7869684623796099e-02  3.7869820652640739e-02  3.7869775198144461e-02  3.7869633698080739e-02  3.7869461376514021e-02  3.7869305317795109e-02  3.7869197123500564e-02  3.7869155731688968e-02  3.7869190111009123e-02  3.7869301654825181e-02  3.7869486190557855e-02  3.7869735588254232e-02  3.7870039002771139e-02  3.7870383818062209e-02  3.7870756379331488e-02  3.7871142593530194e-02  3.7871528437881885e-02  3.7871900321173581e-02  3.7872245081468386e-02  3.7872549207147901e-02  3.7872796756269603e-02  3.7872965656596980e-02  1.0446901176779350e-01  1.0447024454308725e-01  3.7873625997721393e-02  3.7873578999703519e-02  3.7873523802691059e-02  3.7873464697392639e-02  3.7873402623716981e-02  3.7873338621825473e-02  3.7873274361894471e-02  3.7873211985984333e-02  3.7873153847242075e-02  3.7873102253256491e-02  3.7873059228267093e-02  3.7873026293049616e-02  3.7873004258776280e-02  3.7872993032619678e-02  3.7872991437782853e-02  3.7872997058698170e-02  3.7873006132439144e-02  3.7873013518719523e-02  3.7873012791699662e-02  3.7872996505271032e-02  3.78729566871