<?xml version="1.0"?>
<VTKFile type="UnstructuredGrid"  version="0.1"  >
<UnstructuredGrid>
<Piece  NumberOfPoints="5151" NumberOfCells="10000">
<Points>
<DataArray  type="Float64"  NumberOfComponents="3"  format="ascii">0 0 0  0.02 0 0  0.04 0 0  0.06 0 0  0.08 0 0  0.1 0 0  0.12 0 0  0.14 0 0  0.16 0 0  0.18 0 0  0.2 0 0  0.22 0 0  0.24 0 0  0.26 0 0  0.28 0 0  0.3 0 0  0.32 0 0  0.34 0 0  0.36 0 0  0.38 0 0  0.4 0 0  0.42 0 0  0.44 0 0  0.46 0 0  0.48 0 0  0.5 0 0  0.52 0 0  0.54 0 0  0.5600000000000001 0 0  0.58 0 0  0.6 0 0  0.62 0 0  0.64 0 0  0.66 0 0  0.68 0 0  0.7 0 0  0.72 0 0  0.74 0 0  0.76 0 0  0.78 0 0  0.8 0 0  0.82 0 0  0.84 0 0  0.86 0 0  0.88 0 0  0.9 0 0  0.92 0 0  0.9399999999999999 0 0  0.96 0 0  0.98 0 0  1 0 0  1.02 0 0  1.04 0 0  1.06 0 0  1.08 0 0  1.1 0 0  1.12 0 0  1.14 0 0  1.16 0 0  1.18 0 0  1.2 0 0  1.22 0 0  1.24 0 0  1.26 0 0  1.28 0 0  1.3 0 0  1.32 0 0  1.34 0 0  1.36 0 0  1.38 0 0  1.4 0 0  1.42 0 0  1.44 0 0  1.46 0 0  1.48 0 0  1.5 0 0  1.52 0 0  1.54 0 0  1.56 0 0  1.58 0 0  1.6 0 0  1.62 0 0  1.64 0 0  1.66 0 0  1.68 0 0  1.7 0 0  1.72 0 0  1.74 0 0  1.76 0 0  1.78 0 0  1.8 0 0  1.82 0 0  1.84 0 0  1.86 0 0  1.88 0 0  1.9 0 0  1.92 0 0  1.94 0 0  1.96 0 0  1.98 0 0  2 0 0  0 0.02 0  0.02 0.02 0  0.04 0.02 0  0.06 0.02 0  0.08 0.02 0  0.1 0.02 0  0.12 0.02 0  0.14 0.02 0  0.16 0.02 0  0.18 0.02 0  0.2 0.02 0  0.22 0.02 0  0.24 0.02 0  0.26 0.02 0  0.28 0.02 0  0.3 0.02 0  0.32 0.02 0  0.34 0.02 0  0.36 0.02 0  0.38 0.02 0  0.4 0.02 0  0.42 0.02 0  0.44 0.02 0  0.46 0.02 0  0.48 0.02 0  0.5 0.02 0  0.52 0.02 0  0.54 0.02 0  0.5600000000000001 0.02 0  0.58 0.02 0  0.6 0.02 0  0.62 0.02 0  0.64 0.02 0  0.66 0.02 0  0.68 0.02 0  0.7 0.02 0  0.72 0.02 0  0.74 0.02 0  0.76 0.02 0  0.78 0.02 0  0.8 0.02 0  0.82 0.02 0  0.84 0.02 0  0.86 0.02 0  0.88 0.02 0  0.9 0.02 0  0.92 0.02 0  0.9399999999999999 0.02 0  0.96 0.02 0  0.98 0.02 0  1 0.02 0  1.02 0.02 0  1.04 0.02 0  1.06 0.02 0  1.08 0.02 0  1.1 0.02 0  1.12 0.02 0  1.14 0.02 0  1.16 0.02 0  1.18 0.02 0  1.2 0.02 0  1.22 0.02 0  1.24 0.02 0  1.26 0.02 0  1.28 0.02 0  1.3 0.02 0  1.32 0.02 0  1.34 0.02 0  1.36 0.02 0  1.38 0.02 0  1.4 0.02 0  1.42 0.02 0  1.44 0.02 0  1.46 0.02 0  1.48 0.02 0  1.5 0.02 0  1.52 0.02 0  1.54 0.02 0  1.56 0.02 0  1.58 0.02 0  1.6 0.02 0  1.62 0.02 0  1.64 0.02 0  1.66 0.02 0  1.68 0.02 0  1.7 0.02 0  1.72 0.02 0  1.74 0.02 0  1.76 0.02 0  1.78 0.02 0  1.8 0.02 0  1.82 0.02 0  1.84 0.02 0  1.86 0.02 0  1.88 0.02 0  1.9 0.02 0  1.92 0.02 0  1.94 0.02 0  1.96 0.02 0  1.98 0.02 0  2 0.02 0  0 0.04 0  0.02 0.04 0  0.04 0.04 0  0.06 0.04 0  0.08 0.04 0  0.1 0.04 0  0.12 0.04 0  0.14 0.04 0  0.16 0.04 0  0.18 0.04 0  0.2 0.04 0  0.22 0.04 0  0.24 0.04 0  0.26 0.04 0  0.28 0.04 0  0.3 0.04 0  0.32 0.04 0  0.34 0.04 0  0.36 0.04 0  0.38 0.04 0  0.4 0.04 0  0.42 0.04 0  0.44 0.04 0  0.46 0.04 0  0.48 0.04 0  0.5 0.04 0  0.52 0.04 0  0.54 0.04 0  0.5600000000000001 0.04 0  0.58 0.04 0  0.6 0.04 0  0.62 0.04 0  0.64 0.04 0  0.66 0.04 0  0.68 0.04 0  0.7 0.04 0  0.72 0.04 0  0.74 0.04 0  0.76 0.04 0  0.78 0.04 0  0.8 0.04 0  0.82 0.04 0  0.84 0.04 0  0.86 0.04 0  0.88 0.04 0  0.9 0.04 0  0.92 0.04 0  0.9399999999999999 0.04 0  0.96 0.04 0  0.98 0.04 0  1 0.04 0  1.02 0.04 0  1.04 0.04 0  1.06 0.04 0  1.08 0.04 0  1.1 0.04 0  1.12 0.04 0  1.14 0.04 0  1.16 0.04 0  1.18 0.04 0  1.2 0.04 0  1.22 0.04 0  1.24 0.04 0  1.26 0.04 0  1.28 0.04 0  1.3 0.04 0  1.32 0.04 0  1.34 0.04 0  1.36 0.04 0  1.38 0.04 0  1.4 0.04 0  1.42 0.04 0  1.44 0.04 0  1.46 0.04 0  1.48 0.04 0  1.5 0.04 0  1.52 0.04 0  1.54 0.04 0  1.56 0.04 0  1.58 0.04 0  1.6 0.04 0  1.62 0.04 0  1.64 0.04 0  1.66 0.04 0  1.68 0.04 0  1.7 0.04 0  1.72 0.04 0  1.74 0.04 0  1.76 0.04 0  1.78 0.04 0  1.8 0.04 0  1.82 0.04 0  1.84 0.04 0  1.86 0.04 0  1.88 0.04 0  1.9 0.04 0  1.92 0.04 0  1.94 0.04 0  1.96 0.04 0  1.98 0.04 0  2 0.04 0  0 0.06 0  0.02 0.06 0  0.04 0.06 0  0.06 0.06 0  0.08 0.06 0  0.1 0.06 0  0.12 0.06 0  0.14 0.06 0  0.16 0.06 0  0.18 0.06 0  0.2 0.06 0  0.22 0.06 0  0.24 0.06 0  0.26 0.06 0  0.28 0.06 0  0.3 0.06 0  0.32 0.06 0  0.34 0.06 0  0.36 0.06 0  0.38 0.06 0  0.4 0.06 0  0.42 0.06 0  0.44 0.06 0  0.46 0.06 0  0.48 0.06 0  0.5 0.06 0  0.52 0.06 0  0.54 0.06 0  0.5600000000000001 0.06 0  0.58 0.06 0  0.6 0.06 0  0.62 0.06 0  0.64 0.06 0  0.66 0.06 0  0.68 0.06 0  0.7 0.06 0  0.72 0.06 0  0.74 0.06 0  0.76 0.06 0  0.78 0.06 0  0.8 0.06 0  0.82 0.06 0  0.84 0.06 0  0.86 0.06 0  0.88 0.06 0  0.9 0.06 0  0.92 0.06 0  0.9399999999999999 0.06 0  0.96 0.06 0  0.98 0.06 0  1 0.06 0  1.02 0.06 0  1.04 0.06 0  1.06 0.06 0  1.08 0.06 0  1.1 0.06 0  1.12 0.06 0  1.14 0.06 0  1.16 0.06 0  1.18 0.06 0  1.2 0.06 0  1.22 0.06 0  1.24 0.06 0  1.26 0.06 0  1.28 0.06 0  1.3 0.06 0  1.32 0.06 0  1.34 0.06 0  1.36 0.06 0  1.38 0.06 0  1.4 0.06 0  1.42 0.06 0  1.44 0.06 0  1.46 0.06 0  1.48 0.06 0  1.5 0.06 0  1.52 0.06 0  1.54 0.06 0  1.56 0.06 0  1.58 0.06 0  1.6 0.06 0  1.62 0.06 0  1.64 0.06 0  1.66 0.06 0  1.68 0.06 0  1.7 0.06 0  1.72 0.06 0  1.74 0.06 0  1.76 0.06 0  1.78 0.06 0  1.8 0.06 0  1.82 0.06 0  1.84 0.06 0  1.86 0.06 0  1.88 0.06 0  1.9 0.06 0  1.92 0.06 0  1.94 0.06 0  1.96 0.06 0  1.98 0.06 0  2 0.06 0  0 0.08 0  0.02 0.08 0  0.04 0.08 0  0.06 0.08 0  0.08 0.08 0  0.1 0.08 0  0.12 0.08 0  0.14 0.08 0  0.16 0.08 0  0.18 0.08 0  0.2 0.08 0  0.22 0.08 0  0.24 0.08 0  0.26 0.08 0  0.28 0.08 0  0.3 0.08 0  0.32 0.08 0  0.34 0.08 0  0.36 0.08 0  0.38 0.08 0  0.4 0.08 0  0.42 0.08 0  0.44 0.08 0  0.46 0.08 0  0.48 0.08 0  0.5 0.08 0  0.52 0.08 0  0.54 0.08 0  0.5600000000000001 0.08 0  0.58 0.08 0  0.6 0.08 0  0.62 0.08 0  0.64 0.08 0  0.66 0.08 0  0.68 0.08 0  0.7 0.08 0  0.72 0.08 0  0.74 0.08 0  0.76 0.08 0  0.78 0.08 0  0.8 0.08 0  0.82 0.08 0  0.84 0.08 0  0.86 0.08 0  0.88 0.08 0  0.9 0.08 0  0.92 0.08 0  0.9399999999999999 0.08 0  0.96 0.08 0  0.98 0.08 0  1 0.08 0  1.02 0.08 0  1.04 0.08 0  1.06 0.08 0  1.08 0.08 0  1.1 0.08 0  1.12 0.08 0  1.14 0.08 0  1.16 0.08 0  1.18 0.08 0  1.2 0.08 0  1.22 0.08 0  1.24 0.08 0  1.26 0.08 0  1.28 0.08 0  1.3 0.08 0  1.32 0.08 0  1.34 0.08 0  1.36 0.08 0  1.38 0.08 0  1.4 0.08 0  1.42 0.08 0  1.44 0.08 0  1.46 0.08 0  1.48 0.08 0  1.5 0.08 0  1.52 0.08 0  1.54 0.08 0  1.56 0.08 0  1.58 0.08 0  1.6 0.08 0  1.62 0.08 0  1.64 0.08 0  1.66 0.08 0  1.68 0.08 0  1.7 0.08 0  1.72 0.08 0  1.74 0.08 0  1.76 0.08 0  1.78 0.08 0  1.8 0.08 0  1.82 0.08 0  1.84 0.08 0  1.86 0.08 0  1.88 0.08 0  1.9 0.08 0  1.92 0.08 0  1.94 0.08 0  1.96 0.08 0  1.98 0.08 0  2 0.08 0  0 0.1 0  0.02 0.1 0  0.04 0.1 0  0.06 0.1 0  0.08 0.1 0  0.1 0.1 0  0.12 0.1 0  0.14 0.1 0  0.16 0.1 0  0.18 0.1 0  0.2 0.1 0  0.22 0.1 0  0.24 0.1 0  0.26 0.1 0  0.28 0.1 0  0.3 0.1 0  0.32 0.1 0  0.34 0.1 0  0.36 0.1 0  0.38 0.1 0  0.4 0.1 0  0.42 0.1 0  0.44 0.1 0  0.46 0.1 0  0.48 0.1 0  0.5 0.1 0  0.52 0.1 0  0.54 0.1 0  0.5600000000000001 0.1 0  0.58 0.1 0  0.6 0.1 0  0.62 0.1 0  0.64 0.1 0  0.66 0.1 0  0.68 0.1 0  0.7 0.1 0  0.72 0.1 0  0.74 0.1 0  0.76 0.1 0  0.78 0.1 0  0.8 0.1 0  0.82 0.1 0  0.84 0.1 0  0.86 0.1 0  0.88 0.1 0  0.9 0.1 0  0.92 0.1 0  0.9399999999999999 0.1 0  0.96 0.1 0  0.98 0.1 0  1 0.1 0  1.02 0.1 0  1.04 0.1 0  1.06 0.1 0  1.08 0.1 0  1.1 0.1 0  1.12 0.1 0  1.14 0.1 0  1.16 0.1 0  1.18 0.1 0  1.2 0.1 0  1.22 0.1 0  1.24 0.1 0  1.26 0.1 0  1.28 0.1 0  1.3 0.1 0  1.32 0.1 0  1.34 0.1 0  1.36 0.1 0  1.38 0.1 0  1.4 0.1 0  1.42 0.1 0  1.44 0.1 0  1.46 0.1 0  1.48 0.1 0  1.5 0.1 0  1.52 0.1 0  1.54 0.1 0  1.56 0.1 0  1.58 0.1 0  1.6 0.1 0  1.62 0.1 0  1.64 0.1 0  1.66 0.1 0  1.68 0.1 0  1.7 0.1 0  1.72 0.1 0  1.74 0.1 0  1.76 0.1 0  1.78 0.1 0  1.8 0.1 0  1.82 0.1 0  1.84 0.1 0  1.86 0.1 0  1.88 0.1 0  1.9 0.1 0  1.92 0.1 0  1.94 0.1 0  1.96 0.1 0  1.98 0.1 0  2 0.1 0  0 0.12 0  0.02 0.12 0  0.04 0.12 0  0.06 0.12 0  0.08 0.12 0  0.1 0.12 0  0.12 0.12 0  0.14 0.12 0  0.16 0.12 0  0.18 0.12 0  0.2 0.12 0  0.22 0.12 0  0.24 0.12 0  0.26 0.12 0  0.28 0.12 0  0.3 0.12 0  0.32 0.12 0  0.34 0.12 0  0.36 0.12 0  0.38 0.12 0  0.4 0.12 0  0.42 0.12 0  0.44 0.12 0  0.46 0.12 0  0.48 0.12 0  0.5 0.12 0  0.52 0.12 0  0.54 0.12 0  0.5600000000000001 0.12 0  0.58 0.12 0  0.6 0.12 0  0.62 0.12 0  0.64 0.12 0  0.66 0.12 0  0.68 0.12 0  0.7 0.12 0  0.72 0.12 0  0.74 0.12 0  0.76 0.12 0  0.78 0.12 0  0.8 0.12 0  0.82 0.12 0  0.84 0.12 0  0.86 0.12 0  0.88 0.12 0  0.9 0.12 0  0.92 0.12 0  0.9399999999999999 0.12 0  0.96 0.12 0  0.98 0.12 0  1 0.12 0  1.02 0.12 0  1.04 0.12 0  1.06 0.12 0  1.08 0.12 0  1.1 0.12 0  1.12 0.12 0  1.14 0.12 0  1.16 0.12 0  1.18 0.12 0  1.2 0.12 0  1.22 0.12 0  1.24 0.12 0  1.26 0.12 0  1.28 0.12 0  1.3 0.12 0  1.32 0.12 0  1.34 0.12 0  1.36 0.12 0  1.38 0.12 0  1.4 0.12 0  1.42 0.12 0  1.44 0.12 0  1.46 0.12 0  1.48 0.12 0  1.5 0.12 0  1.52 0.12 0  1.54 0.12 0  1.56 0.12 0  1.58 0.12 0  1.6 0.12 0  1.62 0.12 0  1.64 0.12 0  1.66 0.12 0  1.68 0.12 0  1.7 0.12 0  1.72 0.12 0  1.74 0.12 0  1.76 0.12 0  1.78 0.12 0  1.8 0.12 0  1.82 0.12 0  1.84 0.12 0  1.86 0.12 0  1.88 0.12 0  1.9 0.12 0  1.92 0.12 0  1.94 0.12 0  1.96 0.12 0  1.98 0.12 0  2 0.12 0  0 0.14 0  0.02 0.14 0  0.04 0.14 0  0.06 0.14 0  0.08 0.14 0  0.1 0.14 0  0.12 0.14 0  0.14 0.14 0  0.16 0.14 0  0.18 0.14 0  0.2 0.14 0  0.22 0.14 0  0.24 0.14 0  0.26 0.14 0  0.28 0.14 0  0.3 0.14 0  0.32 0.14 0  0.34 0.14 0  0.36 0.14 0  0.38 0.14 0  0.4 0.14 0  0.42 0.14 0  0.44 0.14 0  0.46 0.14 0  0.48 0.14 0  0.5 0.14 0  0.52 0.14 0  0.54 0.14 0  0.5600000000000001 0.14 0  0.58 0.14 0  0.6 0.14 0  0.62 0.14 0  0.64 0.14 0  0.66 0.14 0  0.68 0.14 0  0.7 0.14 0  0.72 0.14 0  0.74 0.14 0  0.76 0.14 0  0.78 0.14 0  0.8 0.14 0  0.82 0.14 0  0.84 0.14 0  0.86 0.14 0  0.88 0.14 0  0.9 0.14 0  0.92 0.14 0  0.9399999999999999 0.14 0  0.96 0.14 0  0.98 0.14 0  1 0.14 0  1.02 0.14 0  1.04 0.14 0  1.06 0.14 0  1.08 0.14 0  1.1 0.14 0  1.12 0.14 0  1.14 0.14 0  1.16 0.14 0  1.18 0.14 0  1.2 0.14 0  1.22 0.14 0  1.24 0.14 0  1.26 0.14 0  1.28 0.14 0  1.3 0.14 0  1.32 0.14 0  1.34 0.14 0  1.36 0.14 0  1.38 0.14 0  1.4 0.14 0  1.42 0.14 0  1.44 0.14 0  1.46 0.14 0  1.48 0.14 0  1
[...]
<PointData  Scalars="sols[i]"> 
<DataArray  type="Float64"  Name="sols[i]"  format="ascii">3.5824268159670725e-01  3.1760549553305351e-01  3.1760549365809587e-01  3.1760549061468724e-01  3.1760548644036618e-01  3.1760548151697399e-01  3.1760547671874301e-01  3.1760547349770951e-01  3.1760547388041549e-01  3.1760548036289621e-01  3.1760549571063895e-01  3.1760552267796582e-01  3.1760556368813081e-01  3.1760562053118380e-01  3.1760569414543199e-01  3.1760578454735733e-01  3.1760589095884140e-01  3.1760601214307027e-01  3.1760614692082167e-01  3.1760629477642843e-01  3.1760645641807528e-01  3.1760663387277488e-01  3.1760682918223015e-01  3.1760704386921057e-01  3.1760727548115053e-01  3.1760751160472955e-01  3.1760772313367147e-01  3.1760785569216143e-01  3.1760782043959090e-01  3.1760748574399705e-01  3.1760667147973420e-01  3.1760514772962201e-01  3.1760263930978488e-01  3.1759883678329864e-01  3.1759341359460186e-01  3.1758604796128981e-01  3.1757644832549653e-01  3.1756438317565189e-01  3.1754969940236005e-01  3.1753232566866912e-01  3.1751228572216444e-01  3.1748969795199589e-01  3.1746475898737275e-01  3.1743771667085402e-01  3.1740884107362938e-01  3.1737839956886077e-01  3.1734664588071582e-01  3.1731383273363589e-01  3.1728024788311660e-01  3.1724625169421727e-01  3.1721228028802012e-01  3.1717879251184067e-01  3.1714617214893515e-01  3.1711464725249089e-01  3.1708430960758488e-01  3.1705528250825826e-01  3.1702791876553327e-01  3.1700279463427877e-01  3.1698047719482569e-01  3.1696132482066341e-01  3.1694570354146767e-01  3.1693439327206402e-01  3.1692864866810688e-01  3.1693039926019162e-01  3.1694264614807049e-01  3.1696897110463257e-01  3.1701257075158273e-01  3.1707629193479719e-01  3.1716342165486078e-01  3.1727752782937474e-01  3.1742139808602399e-01  3.1759605937805213e-01  3.1779980981267714e-01  3.1802600511484697e-01  3.1825956369366254e-01  3.1847287240901123e-01  3.1862252965560212e-01  3.1865185890828318e-01  3.1850893011861003e-01  3.1818242383378131e-01  3.1773301619839756e-01  3.1728004889576705e-01  3.1693291571161364e-01  3.1673563244100755e-01  3.1666985786982549e-01  3.1669326323966407e-01  3.1676854164877288e-01  3.1687077031374028e-01  3.1698425981262157e-01  3.1709849988187711e-01  3.1720604411583792e-01  3.1730182581633953e-01  3.1738294896987840e-01  3.1744844687471052e-01  3.1749889224169736e-01  3.1753591546790111e-01  3.1756171976369846e-01  3.1757864960837773e-01  3.1758882909712099e-01  3.1759386347473045e-01  4.2167915355659980e-01  3.1760549564900570e-01  2.6817352160364244e-01  2.6817350976616938e-01  2.6817348886389691e-01  2.6817345686579552e-01  2.6817341165912806e-01  2.6817335125540120e-01  2.6817327405384495e-01  2.6817317907094768e-01  2.6817306603051394e-01  2.6817293525226110e-01  2.6817278733527494e-01  2.6817262269372710e-01  2.6817244105467714e-01  2.6817224106709420e-01  2.6817202018563119e-01  2.6817177497696304e-01  2.6817150194509976e-01  2.6817119887471763e-01  2.6817086654546363e-01  2.6817051048097001e-01  2.6817014215605162e-01  2.6816977865646197e-01  2.6816944038828217e-01  2.6816914601562297e-01  2.6816890239313140e-01  2.6816869101894109e-01  2.6816845099093423e-01  2.6816806004382693e-01  2.6816731617573747e-01  2.6816592298813335e-01  2.6816348201841678e-01  2.6815949484993984e-01  2.6815337662823491e-01  2.6814448100056976e-01  2.6813213478968440e-01  2.6811567937755648e-01  2.6809451600017037e-01  2.6806815070983703e-01  2.6803622409558758e-01  2.6799852781249739e-01  2.6795500978252407e-01  2.6790576985000070e-01  2.6785102713883607e-01  2.6779107624071274e-01  2.6772623987407917e-01  2.6765683149614738e-01  2.6758314392247262e-01  2.6750546751714099e-01  2.6742410731824007e-01  2.6733934487346661e-01  2.6725131076604203e-01  2.6715977775794381e-01  2.6706396031506630e-01  2.6696244649627349e-01  2.6685336628372613e-01  2.6673464777173517e-01  2.6660400919466753e-01  2.6645862689321953e-01  2.6629484164050593e-01  2.6610855333591560e-01  2.6589595724878085e-01  2.6565376989790163e-01  2.6537976327901441e-01  2.6507383808506818e-01  2.6473823902058752e-01  2.6437704444103638e-01  2.6399574308777551e-01  2.6360054708558178e-01  2.6319711433215648e-01  2.6278943892880269e-01  2.6237772442474727e-01  2.6195432071865998e-01  2.6149968803084195e-01  2.6098624533319448e-01  2.6039654539377349e-01  2.5975118409545828e-01  2.5913260389561477e-01  2.5868564053901555e-01  2.5858009610536986e-01  2.5895554735419429e-01  2.5986108518049655e-01  2.6116964656515612e-01  2.6260557138821816e-01  2.6391011296038297e-01  2.6495428240521834e-01  2.6573361305121612e-01  2.6630470380129279e-01  2.6673212241461053e-01  2.6706431324320484e-01  2.6733043643752635e-01  2.6754586188253604e-01  2.6771863525837059e-01  2.6785400073341015e-01  2.6795669809652833e-01  2.6803170102880131e-01  2.6808413437349454e-01  2.6811888833267228e-01  2.6814020189247068e-01  2.6815130926210540e-01  3.1759403200797609e-01  3.1760549415644818e-01  2.6817351053241539e-01  2.6817349379374084e-01  2.6817346616280130e-01  2.6817342728235882e-01  2.6817337749834302e-01  2.6817331782546799e-01  2.6817324974625922e-01  2.6817317499126819e-01  2.6817309531698930e-01  2.6817301226307549e-01  2.6817292688311550e-01  2.6817283947251946e-01  2.6817274934814966e-01  2.6817265475653312e-01  2.6817255299185372e-01  2.6817244077841962e-01  2.6817231490515325e-01  2.6817217298427848e-01  2.6817201404150676e-01  2.6817183846493708e-01  2.6817164667760740e-01  2.6817143582304082e-01  2.6817119399623995e-01  2.6817089189144616e-01  2.6817047161155411e-01  2.6816983439052389e-01  2.6816882839826650e-01  2.6816723863859554e-01  2.6816478095811180e-01  2.6816110184108100e-01  2.6815578494317416e-01  2.6814836425050059e-01  2.6813834259997271e-01  2.6812521352714436e-01  2.6810848436578844e-01  2.6808769908565683e-01  2.6806246043905507e-01  2.6803245134477904e-01  2.6799744506554729e-01  2.6795730199412204e-01  2.6791196649934723e-01  2.6786144894024883e-01  2.6780579255175518e-01  2.6774502260679073e-01  2.6767908767253890e-01  2.6760781124917210e-01  2.6753087752071042e-01  2.6744785703649909e-01  2.6735821903929990e-01  2.6726124749368035e-01  2.6715582141128363e-01  2.6704007423465947e-01  2.6691106745531090e-01  2.6676467586601316e-01  2.6659588303561255e-01  2.6639920309873311e-01  2.6616863204188901e-01  2.6589712486606132e-01  2.6557626193469974e-01  2.6519734854415672e-01  2.6475293006665523e-01  2.6423708534062273e-01  2.6364638345618358e-01  2.6298164915575911e-01  2.6224941451174855e-01  2.6146382509927357e-01  2.6064583388794060e-01  2.5981715311379400e-01  2.5899582821122363e-01  2.5819990127078096e-01  2.5744821335890833e-01  2.5675059349045609e-01  2.5609143657870670e-01  2.5543178561818591e-01  2.5474910519722144e-01  2.5408315483422783e-01  2.5352402574657562e-01  2.5313913719312692e-01  2.5302202823220737e-01  2.5350349232810937e-01  2.5501106892849518e-01  2.5747231622491418e-01  2.6022068691929390e-01  2.6259980456834997e-01  2.6434295907238242e-01  2.6550385517961689e-01  2.6625051994754806e-01  2.6673996639342501e-01  2.6707999690110518e-01  2.6733311420933842e-01  2.6753166791046101e-01  2.6769129697946881e-01  2.6781969634694713e-01  2.6792137985653297e-01  2.6799984585930681e-01  2.6805832570328014e-01  2.6809988042471561e-01  2.6812723303134600e-01  2.6814243274522259e-01  3.1758976931831506e-01  3.1760549193483478e-01  2.6817349129969908e-01  2.6817346769453765e-01  2.6817343141488803e-01  2.6817338447440425e-01  2.6817333007970445e-01  2.6817327251272705e-01  2.6817321651985948e-01  2.6817316658065038e-01  2.6817312625770140e-01  2.6817309770474329e-01  2.6817308135458129e-01  2.6817307579158850e-01  2.6817307781215938e-01  2.6817308267606782e-01  2.6817308453738714e-01  2.6817307700035209e-01  2.6817305365940236e-01  2.6817300834047425e-01  2.6817293456866487e-01  2.6817282360632771e-01  2.6817266031868175e-01  2.6817241626657656e-01  2.6817203990587285e-01  2.6817144454925801e-01  2.6817049550675526e-01  2.6816899902708907e-01  2.6816669545175564e-01  2.6816325893886150e-01  2.6815830535982432e-01  2.6815140853748221e-01  2.6814212321236131e-01  2.6813001122022395e-01  2.6811466600741063e-01  2.6809573079627463e-01  2.6807290788802585e-01  2.6804595960313571e-01  2.6801470362530244e-01  2.6797900560574034e-01  2.6793876273170442e-01  2.6789386875867072e-01  2.6784419883104160e-01  2.6778957815517079e-01  2.6772971876649698e-01  2.6766414257562349e-01  2.6759208111027283e-01  2.6751238357440466e-01  2.6742347847201309e-01  2.6732340319457865e-01  2.6720979760161678e-01  2.6707971970462946e-01  2.6692923869562851e-01  2.6675281206702217e-01  2.6654267652213298e-01  2.6628860060735005e-01  2.6597843708797086e-01  2.6559886285955803e-01  2.6513525124024823e-01  2.6457091873486993e-01  2.6388688021707812e-01  2.6306465768823123e-01  2.6208969203973109e-01  2.6095306413260355e-01  2.5965501193983931e-01  2.5820682440759324e-01  2.5663550134031343e-01  2.5499853452442744e-01  2.5338771719625686e-01  2.5190807259566855e-01  2.5067099216855776e-01  2.4984482371195726e-01  2.4971430554755794e-01  2.5065433172843699e-01  2.5286853596956782e-01  2.5596064913101663e-01  2.5890725987395707e-01  2.6084221142442165e-01  2.6148757306975917e-01  2.6138474604170564e-01  2.6134754568912477e-01  2.5936838391101158e-01  2.5389156535899277e-01  2.5153498298810134e-01  2.5535416202780786e-01  2.5975139221152155e-01  2.6294061632699933e-01  2.6489289093108714e-01  2.6600884804475455e-01  2.6664695285265400e-01  2.6703447945356384e-01  2.6729451110661345e-01  2.6748744764421228e-01  2.6764086649062158e-01  2.6776675797081401e-01  2.6787037307052725e-01  2.6795436691294694e-01  2.6802054556458260e-01  2.6807047338124151e-01  2.6810550461197924e-01  2.6812633912189199e-01  3.1758142335632206e-01  3.1760548913672437e-01  2.6817346197064423e-01  2.6817343050696013e-01  2.6817338508734323e-01  2.6817333087477085e-01  2.6817327415733927e-01  2.6817322225938134e-01  2.6817318265900475e-01  2.6817316178886003e-01  2.6817316391683915e-01  2.6817319032336967e-01  2.6817323886645439e-01  2.6817330395286504e-01  2.6817337688914361e-01  2.6817344655130088e-01  2.6817350026797404e-01  2.6817352474357087e-01  2.6817350673333706e-01  2.6817343300512714e-01  2.6817328887935299e-01  2.6817305441503458e-01  2.6817269728719750e-01  2.6817216180757714e-01  2.6817135445879470e-01  2.6817012762632680e-01  2.6816826462787813e-01  2.6816546970836308e-01  2.6816136658639633e-01  2.6815550825950973e-01  2.6814739920035546e-01  2.6813652872799121e-01  2.6812241125781805e-01  2.6810462600268076e-01  2.6808284678021327e-01  2.6805685399718032e-01  2.6802652626005657e-01  2.6799181511761966e-01  2.6795270923824183e-01  2.6790919275003688e-01  2.6786119401299091e-01  2.6780851700453789e-01  2.6775078547954106e-01  2.6768738889096949e-01  2.6761737173290467e-01  2.6753927962605523e-01  2.6745095365437443e-01  2.6734932402188999e-01  2.6723029324042757e-01  2.6708874433894048e-01  2.6691845427638072e-01  2.6671166729825035e-01  2.6645832490766508e-01  2.6614492888975516e-01  2.6575341985945677e-01  2.6526070204687791e-01  2.6463984762001247e-01  2.6386139607108977e-01  2.6289296010692481e-01  2.6169889146661429e-01  2.6024246785296978e-01  2.5849502261762392e-01  2.5644474722693733e-01  2.5410941376629864e-01  2.5156353939071807e-01  2.4895730647579686e-01  2.4658420927571573e-01  2.4510852136507943e-01  2.4569851121418781e-01  2.4878090481331216e-01  2.5204540335499359e-01  2.5392741545830877e-01  2.5695643702439397e-01  2.5430758647209029e-01  2.5571541657504798e-01  2.7538661546530058e-01  2.9998486988749840e-01  3.2796430127209875e-01  3.5123897767007844e-01  3.5875536016172643e-01  3.4643492533953457e-01  3.0871518552008603e-01  2.5989086752634089e-01  2.5871456909477958e-01  2.5112536376967354e-01  2.5519488828139031e-01  2.6062687277744256e-01  2.6387956613533237e-01  2.6558052166112611e-01  2.6645198885866106e-01  2.6692454322349635e-01  2.6721280180041102e-01  2.6741453893325368e-01  2.6757171512643185e-01  2.6770146870734901e-01  2.6781051585661231e-01  2.6790148981585121e-01  2.6797559361741763e-01  2.6803359471879790e-01  2.6807597474399664e-01  2.6810239039065470e-01  3.1756835359663627e-01  3.1760548593536625e-01  2.6817341970310721e-01  2.6817338030520455e-01  2.6817332628410934e-01  2.6817326661853269e-01  2.6817321090163859e-01  2.6817316919996825e-01  2.6817315096163735e-01  2.6817316340545155e-01  2.6817320992898691e-01  2.6817328891079523e-01  2.6817339310943483e-01  2.6817350973211390e-01  2.6817362114735049e-01  2.6817370612819263e-01  2.6817374142279604e-01  2.6817370334581553e-01  2.6817356893147670e-01  2.6817331596784388e-01  2.6817292089001382e-01  2.6817235312683774e-01  2.6817156454779367e-01  2.6817047347378370e-01  2.6816894432410127e-01  2.6816676602750056e-01  2.6816363421385031e-01  2.6815914213604336e-01  2.6815278465146092e-01  2.6814397846539517e-01  2.6813209935407611e-01  2.6811653392713752e-01  2.6809673861092231e-01  2.6807229332957755e-01  2.6804293420236186e-01  2.6800855299182325e-01  2.6796916189064091e-01  2.6792483242778570e-01  2.6787561896416306e-01  2.6782147161057535e-01  2.6776213352000905e-01  2.6769701629658121e-01  2.6762508116344269e-01  2.6754472095772386e-01  2.6745355911181956e-01  2.6734814121913475e-01  2.6722349459930894e-01  2.6707266059898205e-01  2.6688637868347936e-01  2.6665301049034901e-01  2.6635821256035341e-01  2.6598391796263032e-01  2.6550683682818449e-01  2.6489648392986437e-01  2.6411341677193634e-01  2.6310878836956764e-01  2.6182801995792815e-01  2.6021441817390711e-01  2.5820992232535855e-01  2.5576146074573131e-01  2.5284482010643294e-01  2.4952043241864164e-01  2.4601524129968594e-01  2.4300312821815195e-01  2.4232676587463339e-01  2.4533750808218913e-01  2.4604858070435695e-01  2.4510954122701714e-01  2.4713884106164574e-01  2.4307985247007946e-01  2.6177519278288097e-01  2.8622023465379748e-01  3.1841557713493407e-01  3.5140408877073959e-01  3.8527227204050873e-01  4.5767661771660312e-01  7.1940669630712517e-01  7.6100440714770834e-01  7.9338966381345510e-01  8.0719770542325731e-01  7.5986953146324998e-01  7.5666095547170920e-01  3.8052698944447638e-01  2.8768834503947593e-01  2.5791007233473229e-01  2.5097996582408444e-01  2.5773257734578831e-01  2.6266545540267516e-01  2.6507853336396264e-01  2.6620953963542604e-01  2.6677546498302807e-01  2.6710125081668690e-01  2.6732189547800150e-01  2.6749128678129708e-01  2.6763052344058025e-01  2.6774780751433908e-01  2.6784636791605954e-01  2.6792756262891626e-01  2.6799201828697666e-01  2.6803984849131207e-01  2.6807023536282915e-01  3.1755004702311024e-01  3.1760548221519080e-01  2.6817336011593512e-01  2.6817331318320203e-01  2.6817325156206778e-01  2.6817318843818649e-01  2.6817313685829580e-01  2.6817310931509164e-01  2.6817311638814872e-01  2.6817316473413499e-01  2.6817325502900285e-01  2.6817338038186245e-01  2.6817352556566582e-01  2.6817366723493757e-01  2.6817377513813068e-01  2.6817381416802966e-01  2.6817374693562901e-01  2.6817353641337349e-01  2.6817314799639802e-01  2.6817255006905316e-01  2.6817171164227877e-01  2.6817059476741056e-01  2.6816913965427347e-01  2.6816724198487973e-01  2.6816472455002588e-01  2.6816130855993220e-01  2.6815659214399579e-01  2.6815004199400994e-01  2.6814100278865638e-01  2.6812872828767176e-01  2.6811243475129359e-01  2.6809137343603262e-01  2.6806491099521818e-01  2.6803259757207454e-01  2.6799419658796592e-01  2.6794965757342831e-01  2.6789903477595073e-01  2.6784237050269188e-01  2.6777955864887254e-01  2.6771018871731728e-01  2.6763335485706741e-01  2.6754742159868672e-01  2.6744978192790447e-01  2.6733661058110014e-01  2.6720247155517302e-01  2.6703970200287636e-01  2.6683748668546853e-01  2.6658083949127082e-01  2.6624985131780088e-01  2.6581943761216559e-01  2.6525847160406291e-01  2.6452749660259844e-01  2.6357582628876403e-01  2.6233856813985823e-01  2.6073580154094778e-01  2.5867623812295254e-01  2.5607418381988445e-01  2.5287280759571723e-01  2.4908067773232159e-01  2.4488604652725215e-01  2.4111721375990641e-01  2.4051277469824900e-01  2.4296523747876678e-01  2.4116988375713674e-01  2.3971579856142927e-01  2.3208188129563931e-01  2.4494938704018313e-01  2.6766466075391915e-01  2.9995194650856027e-01  3.3934905707601548e-01  6.0832587000863003e-01  7.3854546998012427e-01  7.7740923010190610e-01  7.8950678736567559e-01  7.8741786567426297e-01  8.1059228879414102e-01  8.3081225711350448e-01  8.5081205068068566e-01  8.6999514332150518e-01  8.8122617052485752e-01  8.7779895750556480e-01  8.5011203612686359e-01  7.8691891168040284e-01  6.6337369237018218e-01  3.9929340615738756e-01  3.3093689115426028e-01  2.8668039162162595e-01  2.6180284415460497e-01  2.6472985289413753e-01  2.6600008909117517e-01  2.6661220961962745e-01  2.6696769181897462e-01  2.6721358042819471e-01  2.6740345594993309e-01  2.6755808114080082e-01  2.6768645227573101e-01  2.6779295666870212e-01  2.6787988790730199e-01  2.6794836737488170e-01  2.6799864009767360e-01  2.6803016041854311e-01  3.1752653220270471e-01  3.1760547694675356e-01  2.6817327635735050e-01  2.6817322197321986e-01  2.6817315332670510e-01  2.6817308787086186e-01  2.6817304202534409e-01  2.6817303026271294e-01  2.6817306334279123e-01  2.6817314586140595e-01  2.6817327372201083e-01  2.6817343216675366e-01  2.6817359487043424e-01  2.6817372440579973e-01  2.6817377415288390e-01  2.6817369145203740e-01  2.6817342155034291e-01  2.6817291173068702e-01  2.6817211477062725e-01  2.6817099065161987e-01  2.6816950459468475e-01  2.6816761731567845e-01  2.6816526423377124e-01  2.6816232332909057e-01  2.6815857546562488e-01  2.6815366598845958e-01  2.6814707866729359e-01  2.6813812767749573e-01  2.6812597155743850e-01  2.6810965481041971e-01  2.6808817863506257e-01  2.6806059768808471e-01  2.6802612617668431e-01  2.6798422006509465e-01  2.6793459085774274e-01  2.6787712219339932e-01  2.6781170329638038e-01  2.6773801837403222e-01  2.6765531273377674e-01  2.6756212089893150e-01  2.6745591065196439e-01  2.6733261801660246e-01  2.6718614104112781e-01  2.6700782505887188e-01  2.6678566729760067e-01  2.6650308819168583e-01  2.6613703711461678e-01  2.6565590687849194e-01  2.6501797712097658e-01  2.6417106595264461e-01  2.6305095091000041e-01  2.6157751734057155e-01  2.5965119715629520e-01  2.5715284094568158e-01  2.5395925744803421e-01  2.4999191058837600e-01  2.4535289037103750e-01  2.4071599113264674e-01  2.3874029649765824e-01  2.4078858086678590e-01  2.3671144225494400e-01  2.3325632071107447e-01  2.2588747819378766e-01  2.3524691168229966e-01  2.5783303451217543e-01  2.9369652079012076e-01  6.2107431906696564e-01  7.3926350577463662e-01  7.8361437041589377e-01  7.6525664139326677e-01  7.8972154084120194e-01  8.0973509172755387e-01  8.3021290873347098e-01  8.5197688879343692e-01  8.7378494202322532e-01  8.9480056322382162e-01  9.1476159965514481e-01  9.3341921579554032e-01  9.4778893661891106e-01  9.5367419081102245e-01  9.4789458818350680e-01  9.2652561237951148e-01  8.5586649345519850e-01  7.0057544742918398e-01  5.9091811547992212e-01  5.4631473225225591e-01  5.1777328560158709e-01  3.1631630462932880e-01  2.6475699803078057e-01  2.6585130043741645e-01  2.6641485963555944e-01  2.6679137063368075e-01  2.6707749122760788e-01  2.6730336217536732e-01  2.6748353311905243e-01  2.6762790667810205e-01  2.6774352649649269e-01  2.6783498826536323e-01  2.6790483173501600e-01  2.6795407570862817e-01  2.6798331374531648e-01  3.1749872286716413e-01  3.1760546716737725e-01  2.6817315763151228e-01  2.6817309462987970e-01  2.6817301793951859e-01  2.6817294901941102e-01  2.6817290721176074e-01  2.6817290823007728e-01  2.6817296183322487e-01  2.6817306885511188e-01  2.6817321818654438e-01  2.6817338443499122e-01  2.6817352693304963e-01  2.6817359058078555e-01  2.6817350869095719e-01  2.6817320758094343e-01  2.6817261228130557e-01  2.6817165260196618e-01  2.6817026849983533e-01  2.6816841379461281e-01  2.6816605588825460e-01  2.6816316340172125e-01  2.68159676821