<?xml version="1.0"?>
<VTKFile type="UnstructuredGrid"  version="0.1"  >
<UnstructuredGrid>
<Piece  NumberOfPoints="5151" NumberOfCells="10000">
<Points>
<DataArray  type="Float64"  NumberOfComponents="3"  format="ascii">0 0 0  0.02 0 0  0.04 0 0  0.06 0 0  0.08 0 0  0.1 0 0  0.12 0 0  0.14 0 0  0.16 0 0  0.18 0 0  0.2 0 0  0.22 0 0  0.24 0 0  0.26 0 0  0.28 0 0  0.3 0 0  0.32 0 0  0.34 0 0  0.36 0 0  0.38 0 0  0.4 0 0  0.42 0 0  0.44 0 0  0.46 0 0  0.48 0 0  0.5 0 0  0.52 0 0  0.54 0 0  0.5600000000000001 0 0  0.58 0 0  0.6 0 0  0.62 0 0  0.64 0 0  0.66 0 0  0.68 0 0  0.7 0 0  0.72 0 0  0.74 0 0  0.76 0 0  0.78 0 0  0.8 0 0  0.82 0 0  0.84 0 0  0.86 0 0  0.88 0 0  0.9 0 0  0.92 0 0  0.9399999999999999 0 0  0.96 0 0  0.98 0 0  1 0 0  1.02 0 0  1.04 0 0  1.06 0 0  1.08 0 0  1.1 0 0  1.12 0 0  1.14 0 0  1.16 0 0  1.18 0 0  1.2 0 0  1.22 0 0  1.24 0 0  1.26 0 0  1.28 0 0  1.3 0 0  1.32 0 0  1.34 0 0  1.36 0 0  1.38 0 0  1.4 0 0  1.42 0 0  1.44 0 0  1.46 0 0  1.48 0 0  1.5 0 0  1.52 0 0  1.54 0 0  1.56 0 0  1.58 0 0  1.6 0 0  1.62 0 0  1.64 0 0  1.66 0 0  1.68 0 0  1.7 0 0  1.72 0 0  1.74 0 0  1.76 0 0  1.78 0 0  1.8 0 0  1.82 0 0  1.84 0 0  1.86 0 0  1.88 0 0  1.9 0 0  1.92 0 0  1.94 0 0  1.96 0 0  1.98 0 0  2 0 0  0 0.02 0  0.02 0.02 0  0.04 0.02 0  0.06 0.02 0  0.08 0.02 0  0.1 0.02 0  0.12 0.02 0  0.14 0.02 0  0.16 0.02 0  0.18 0.02 0  0.2 0.02 0  0.22 0.02 0  0.24 0.02 0  0.26 0.02 0  0.28 0.02 0  0.3 0.02 0  0.32 0.02 0  0.34 0.02 0  0.36 0.02 0  0.38 0.02 0  0.4 0.02 0  0.42 0.02 0  0.44 0.02 0  0.46 0.02 0  0.48 0.02 0  0.5 0.02 0  0.52 0.02 0  0.54 0.02 0  0.5600000000000001 0.02 0  0.58 0.02 0  0.6 0.02 0  0.62 0.02 0  0.64 0.02 0  0.66 0.02 0  0.68 0.02 0  0.7 0.02 0  0.72 0.02 0  0.74 0.02 0  0.76 0.02 0  0.78 0.02 0  0.8 0.02 0  0.82 0.02 0  0.84 0.02 0  0.86 0.02 0  0.88 0.02 0  0.9 0.02 0  0.92 0.02 0  0.9399999999999999 0.02 0  0.96 0.02 0  0.98 0.02 0  1 0.02 0  1.02 0.02 0  1.04 0.02 0  1.06 0.02 0  1.08 0.02 0  1.1 0.02 0  1.12 0.02 0  1.14 0.02 0  1.16 0.02 0  1.18 0.02 0  1.2 0.02 0  1.22 0.02 0  1.24 0.02 0  1.26 0.02 0  1.28 0.02 0  1.3 0.02 0  1.32 0.02 0  1.34 0.02 0  1.36 0.02 0  1.38 0.02 0  1.4 0.02 0  1.42 0.02 0  1.44 0.02 0  1.46 0.02 0  1.48 0.02 0  1.5 0.02 0  1.52 0.02 0  1.54 0.02 0  1.56 0.02 0  1.58 0.02 0  1.6 0.02 0  1.62 0.02 0  1.64 0.02 0  1.66 0.02 0  1.68 0.02 0  1.7 0.02 0  1.72 0.02 0  1.74 0.02 0  1.76 0.02 0  1.78 0.02 0  1.8 0.02 0  1.82 0.02 0  1.84 0.02 0  1.86 0.02 0  1.88 0.02 0  1.9 0.02 0  1.92 0.02 0  1.94 0.02 0  1.96 0.02 0  1.98 0.02 0  2 0.02 0  0 0.04 0  0.02 0.04 0  0.04 0.04 0  0.06 0.04 0  0.08 0.04 0  0.1 0.04 0  0.12 0.04 0  0.14 0.04 0  0.16 0.04 0  0.18 0.04 0  0.2 0.04 0  0.22 0.04 0  0.24 0.04 0  0.26 0.04 0  0.28 0.04 0  0.3 0.04 0  0.32 0.04 0  0.34 0.04 0  0.36 0.04 0  0.38 0.04 0  0.4 0.04 0  0.42 0.04 0  0.44 0.04 0  0.46 0.04 0  0.48 0.04 0  0.5 0.04 0  0.52 0.04 0  0.54 0.04 0  0.5600000000000001 0.04 0  0.58 0.04 0  0.6 0.04 0  0.62 0.04 0  0.64 0.04 0  0.66 0.04 0  0.68 0.04 0  0.7 0.04 0  0.72 0.04 0  0.74 0.04 0  0.76 0.04 0  0.78 0.04 0  0.8 0.04 0  0.82 0.04 0  0.84 0.04 0  0.86 0.04 0  0.88 0.04 0  0.9 0.04 0  0.92 0.04 0  0.9399999999999999 0.04 0  0.96 0.04 0  0.98 0.04 0  1 0.04 0  1.02 0.04 0  1.04 0.04 0  1.06 0.04 0  1.08 0.04 0  1.1 0.04 0  1.12 0.04 0  1.14 0.04 0  1.16 0.04 0  1.18 0.04 0  1.2 0.04 0  1.22 0.04 0  1.24 0.04 0  1.26 0.04 0  1.28 0.04 0  1.3 0.04 0  1.32 0.04 0  1.34 0.04 0  1.36 0.04 0  1.38 0.04 0  1.4 0.04 0  1.42 0.04 0  1.44 0.04 0  1.46 0.04 0  1.48 0.04 0  1.5 0.04 0  1.52 0.04 0  1.54 0.04 0  1.56 0.04 0  1.58 0.04 0  1.6 0.04 0  1.62 0.04 0  1.64 0.04 0  1.66 0.04 0  1.68 0.04 0  1.7 0.04 0  1.72 0.04 0  1.74 0.04 0  1.76 0.04 0  1.78 0.04 0  1.8 0.04 0  1.82 0.04 0  1.84 0.04 0  1.86 0.04 0  1.88 0.04 0  1.9 0.04 0  1.92 0.04 0  1.94 0.04 0  1.96 0.04 0  1.98 0.04 0  2 0.04 0  0 0.06 0  0.02 0.06 0  0.04 0.06 0  0.06 0.06 0  0.08 0.06 0  0.1 0.06 0  0.12 0.06 0  0.14 0.06 0  0.16 0.06 0  0.18 0.06 0  0.2 0.06 0  0.22 0.06 0  0.24 0.06 0  0.26 0.06 0  0.28 0.06 0  0.3 0.06 0  0.32 0.06 0  0.34 0.06 0  0.36 0.06 0  0.38 0.06 0  0.4 0.06 0  0.42 0.06 0  0.44 0.06 0  0.46 0.06 0  0.48 0.06 0  0.5 0.06 0  0.52 0.06 0  0.54 0.06 0  0.5600000000000001 0.06 0  0.58 0.06 0  0.6 0.06 0  0.62 0.06 0  0.64 0.06 0  0.66 0.06 0  0.68 0.06 0  0.7 0.06 0  0.72 0.06 0  0.74 0.06 0  0.76 0.06 0  0.78 0.06 0  0.8 0.06 0  0.82 0.06 0  0.84 0.06 0  0.86 0.06 0  0.88 0.06 0  0.9 0.06 0  0.92 0.06 0  0.9399999999999999 0.06 0  0.96 0.06 0  0.98 0.06 0  1 0.06 0  1.02 0.06 0  1.04 0.06 0  1.06 0.06 0  1.08 0.06 0  1.1 0.06 0  1.12 0.06 0  1.14 0.06 0  1.16 0.06 0  1.18 0.06 0  1.2 0.06 0  1.22 0.06 0  1.24 0.06 0  1.26 0.06 0  1.28 0.06 0  1.3 0.06 0  1.32 0.06 0  1.34 0.06 0  1.36 0.06 0  1.38 0.06 0  1.4 0.06 0  1.42 0.06 0  1.44 0.06 0  1.46 0.06 0  1.48 0.06 0  1.5 0.06 0  1.52 0.06 0  1.54 0.06 0  1.56 0.06 0  1.58 0.06 0  1.6 0.06 0  1.62 0.06 0  1.64 0.06 0  1.66 0.06 0  1.68 0.06 0  1.7 0.06 0  1.72 0.06 0  1.74 0.06 0  1.76 0.06 0  1.78 0.06 0  1.8 0.06 0  1.82 0.06 0  1.84 0.06 0  1.86 0.06 0  1.88 0.06 0  1.9 0.06 0  1.92 0.06 0  1.94 0.06 0  1.96 0.06 0  1.98 0.06 0  2 0.06 0  0 0.08 0  0.02 0.08 0  0.04 0.08 0  0.06 0.08 0  0.08 0.08 0  0.1 0.08 0  0.12 0.08 0  0.14 0.08 0  0.16 0.08 0  0.18 0.08 0  0.2 0.08 0  0.22 0.08 0  0.24 0.08 0  0.26 0.08 0  0.28 0.08 0  0.3 0.08 0  0.32 0.08 0  0.34 0.08 0  0.36 0.08 0  0.38 0.08 0  0.4 0.08 0  0.42 0.08 0  0.44 0.08 0  0.46 0.08 0  0.48 0.08 0  0.5 0.08 0  0.52 0.08 0  0.54 0.08 0  0.5600000000000001 0.08 0  0.58 0.08 0  0.6 0.08 0  0.62 0.08 0  0.64 0.08 0  0.66 0.08 0  0.68 0.08 0  0.7 0.08 0  0.72 0.08 0  0.74 0.08 0  0.76 0.08 0  0.78 0.08 0  0.8 0.08 0  0.82 0.08 0  0.84 0.08 0  0.86 0.08 0  0.88 0.08 0  0.9 0.08 0  0.92 0.08 0  0.9399999999999999 0.08 0  0.96 0.08 0  0.98 0.08 0  1 0.08 0  1.02 0.08 0  1.04 0.08 0  1.06 0.08 0  1.08 0.08 0  1.1 0.08 0  1.12 0.08 0  1.14 0.08 0  1.16 0.08 0  1.18 0.08 0  1.2 0.08 0  1.22 0.08 0  1.24 0.08 0  1.26 0.08 0  1.28 0.08 0  1.3 0.08 0  1.32 0.08 0  1.34 0.08 0  1.36 0.08 0  1.38 0.08 0  1.4 0.08 0  1.42 0.08 0  1.44 0.08 0  1.46 0.08 0  1.48 0.08 0  1.5 0.08 0  1.52 0.08 0  1.54 0.08 0  1.56 0.08 0  1.58 0.08 0  1.6 0.08 0  1.62 0.08 0  1.64 0.08 0  1.66 0.08 0  1.68 0.08 0  1.7 0.08 0  1.72 0.08 0  1.74 0.08 0  1.76 0.08 0  1.78 0.08 0  1.8 0.08 0  1.82 0.08 0  1.84 0.08 0  1.86 0.08 0  1.88 0.08 0  1.9 0.08 0  1.92 0.08 0  1.94 0.08 0  1.96 0.08 0  1.98 0.08 0  2 0.08 0  0 0.1 0  0.02 0.1 0  0.04 0.1 0  0.06 0.1 0  0.08 0.1 0  0.1 0.1 0  0.12 0.1 0  0.14 0.1 0  0.16 0.1 0  0.18 0.1 0  0.2 0.1 0  0.22 0.1 0  0.24 0.1 0  0.26 0.1 0  0.28 0.1 0  0.3 0.1 0  0.32 0.1 0  0.34 0.1 0  0.36 0.1 0  0.38 0.1 0  0.4 0.1 0  0.42 0.1 0  0.44 0.1 0  0.46 0.1 0  0.48 0.1 0  0.5 0.1 0  0.52 0.1 0  0.54 0.1 0  0.5600000000000001 0.1 0  0.58 0.1 0  0.6 0.1 0  0.62 0.1 0  0.64 0.1 0  0.66 0.1 0  0.68 0.1 0  0.7 0.1 0  0.72 0.1 0  0.74 0.1 0  0.76 0.1 0  0.78 0.1 0  0.8 0.1 0  0.82 0.1 0  0.84 0.1 0  0.86 0.1 0  0.88 0.1 0  0.9 0.1 0  0.92 0.1 0  0.9399999999999999 0.1 0  0.96 0.1 0  0.98 0.1 0  1 0.1 0  1.02 0.1 0  1.04 0.1 0  1.06 0.1 0  1.08 0.1 0  1.1 0.1 0  1.12 0.1 0  1.14 0.1 0  1.16 0.1 0  1.18 0.1 0  1.2 0.1 0  1.22 0.1 0  1.24 0.1 0  1.26 0.1 0  1.28 0.1 0  1.3 0.1 0  1.32 0.1 0  1.34 0.1 0  1.36 0.1 0  1.38 0.1 0  1.4 0.1 0  1.42 0.1 0  1.44 0.1 0  1.46 0.1 0  1.48 0.1 0  1.5 0.1 0  1.52 0.1 0  1.54 0.1 0  1.56 0.1 0  1.58 0.1 0  1.6 0.1 0  1.62 0.1 0  1.64 0.1 0  1.66 0.1 0  1.68 0.1 0  1.7 0.1 0  1.72 0.1 0  1.74 0.1 0  1.76 0.1 0  1.78 0.1 0  1.8 0.1 0  1.82 0.1 0  1.84 0.1 0  1.86 0.1 0  1.88 0.1 0  1.9 0.1 0  1.92 0.1 0  1.94 0.1 0  1.96 0.1 0  1.98 0.1 0  2 0.1 0  0 0.12 0  0.02 0.12 0  0.04 0.12 0  0.06 0.12 0  0.08 0.12 0  0.1 0.12 0  0.12 0.12 0  0.14 0.12 0  0.16 0.12 0  0.18 0.12 0  0.2 0.12 0  0.22 0.12 0  0.24 0.12 0  0.26 0.12 0  0.28 0.12 0  0.3 0.12 0  0.32 0.12 0  0.34 0.12 0  0.36 0.12 0  0.38 0.12 0  0.4 0.12 0  0.42 0.12 0  0.44 0.12 0  0.46 0.12 0  0.48 0.12 0  0.5 0.12 0  0.52 0.12 0  0.54 0.12 0  0.5600000000000001 0.12 0  0.58 0.12 0  0.6 0.12 0  0.62 0.12 0  0.64 0.12 0  0.66 0.12 0  0.68 0.12 0  0.7 0.12 0  0.72 0.12 0  0.74 0.12 0  0.76 0.12 0  0.78 0.12 0  0.8 0.12 0  0.82 0.12 0  0.84 0.12 0  0.86 0.12 0  0.88 0.12 0  0.9 0.12 0  0.92 0.12 0  0.9399999999999999 0.12 0  0.96 0.12 0  0.98 0.12 0  1 0.12 0  1.02 0.12 0  1.04 0.12 0  1.06 0.12 0  1.08 0.12 0  1.1 0.12 0  1.12 0.12 0  1.14 0.12 0  1.16 0.12 0  1.18 0.12 0  1.2 0.12 0  1.22 0.12 0  1.24 0.12 0  1.26 0.12 0  1.28 0.12 0  1.3 0.12 0  1.32 0.12 0  1.34 0.12 0  1.36 0.12 0  1.38 0.12 0  1.4 0.12 0  1.42 0.12 0  1.44 0.12 0  1.46 0.12 0  1.48 0.12 0  1.5 0.12 0  1.52 0.12 0  1.54 0.12 0  1.56 0.12 0  1.58 0.12 0  1.6 0.12 0  1.62 0.12 0  1.64 0.12 0  1.66 0.12 0  1.68 0.12 0  1.7 0.12 0  1.72 0.12 0  1.74 0.12 0  1.76 0.12 0  1.78 0.12 0  1.8 0.12 0  1.82 0.12 0  1.84 0.12 0  1.86 0.12 0  1.88 0.12 0  1.9 0.12 0  1.92 0.12 0  1.94 0.12 0  1.96 0.12 0  1.98 0.12 0  2 0.12 0  0 0.14 0  0.02 0.14 0  0.04 0.14 0  0.06 0.14 0  0.08 0.14 0  0.1 0.14 0  0.12 0.14 0  0.14 0.14 0  0.16 0.14 0  0.18 0.14 0  0.2 0.14 0  0.22 0.14 0  0.24 0.14 0  0.26 0.14 0  0.28 0.14 0  0.3 0.14 0  0.32 0.14 0  0.34 0.14 0  0.36 0.14 0  0.38 0.14 0  0.4 0.14 0  0.42 0.14 0  0.44 0.14 0  0.46 0.14 0  0.48 0.14 0  0.5 0.14 0  0.52 0.14 0  0.54 0.14 0  0.5600000000000001 0.14 0  0.58 0.14 0  0.6 0.14 0  0.62 0.14 0  0.64 0.14 0  0.66 0.14 0  0.68 0.14 0  0.7 0.14 0  0.72 0.14 0  0.74 0.14 0  0.76 0.14 0  0.78 0.14 0  0.8 0.14 0  0.82 0.14 0  0.84 0.14 0  0.86 0.14 0  0.88 0.14 0  0.9 0.14 0  0.92 0.14 0  0.9399999999999999 0.14 0  0.96 0.14 0  0.98 0.14 0  1 0.14 0  1.02 0.14 0  1.04 0.14 0  1.06 0.14 0  1.08 0.14 0  1.1 0.14 0  1.12 0.14 0  1.14 0.14 0  1.16 0.14 0  1.18 0.14 0  1.2 0.14 0  1.22 0.14 0  1.24 0.14 0  1.26 0.14 0  1.28 0.14 0  1.3 0.14 0  1.32 0.14 0  1.34 0.14 0  1.36 0.14 0  1.38 0.14 0  1.4 0.14 0  1.42 0.14 0  1.44 0.14 0  1.46 0.14 0  1.48 0.14 0  1
[...]
<PointData  Scalars="sols[i]"> 
<DataArray  type="Float64"  Name="sols[i]"  format="ascii">5.0482607458095374e-01  5.0012815322610882e-01  5.0012903917819529e-01  5.0013057664587457e-01  5.0013295869724783e-01  5.0013643546653941e-01  5.0014129059298018e-01  5.0014780515329527e-01  5.0015622335782572e-01  5.0016672289555675e-01  5.0017938917126370e-01  5.0019419258045394e-01  5.0021096862056524e-01  5.0022940138473027e-01  5.0024901181470671e-01  5.0026915305947195e-01  5.0028901641734258e-01  5.0030765262253485e-01  5.0032401462980614e-01  5.0033702946185743e-01  5.0034570793758715e-01  5.0034930188286231e-01  5.0034751822415668e-01  5.0034079738832138e-01  5.0033065856308578e-01  5.0032010520331704e-01  5.0031406920917632e-01  5.0031985040863391e-01  5.0034747967807358e-01  5.0040990222046233e-01  5.0052284908347167e-01  5.0070425107491245e-01  5.0097306348634441e-01  5.0134742422841072e-01  5.0184216571580398e-01  5.0246583223106278e-01  5.0321749399302473e-01  5.0408375612791789e-01  5.0503639178120197e-01  5.0603100280399149e-01  5.0700724891741389e-01  5.0789162103655094e-01  5.0860368617362117e-01  5.0906718715280841e-01  5.0923008924301782e-01  5.0909283733155042e-01  5.0872713782773848e-01  5.0826269221493858e-01  5.0785128616772968e-01  5.0762548848885636e-01  5.0766252723639604e-01  5.0795534160393629e-01  5.0841324289971523e-01  5.0889418634905392e-01  5.0924544630328406e-01  5.0934010502620353e-01  5.0910742015879551e-01  5.0854478375750689e-01  5.0770698118881841e-01  5.0668322013139722e-01  5.0557488432667419e-01  5.0447976920102910e-01  5.0348174947626334e-01  5.0264356878891492e-01  5.0200233345689160e-01  5.0156852604205082e-01  5.0132891250857814e-01  5.0125258787656135e-01  5.0129858052806509e-01  5.0142327211776128e-01  5.0158630227519752e-01  5.0175432448459689e-01  5.0190264527873996e-01  5.0201520854055048e-01  5.0208353686551677e-01  5.0210518560087003e-01  5.0208211132123171e-01  5.0201919177319754e-01  5.0192300403336976e-01  5.0180088323034844e-01  5.0166023884587718e-01  5.0150808685129877e-01  5.0135075243097316e-01  5.0119370188012846e-01  5.0104146878533229e-01  5.0089764645829216e-01  5.0076492482683843e-01  5.0064515532272769e-01  5.0053943178496674e-01  5.0044817916342177e-01  5.0037124500932295e-01  5.0030799147167826e-01  5.0025738776604933e-01  5.0021810465387084e-01  5.0018861299367368e-01  5.0016728759032159e-01  5.0015251593335308e-01  5.0014281144867212e-01  5.0013693380217361e-01  5.0013400066358660e-01  5.1005668747404476e-01  5.0012814754894797e-01  4.6754977033479311e-01  4.6755168980075190e-01  4.6755501875568473e-01  4.6756003549716402e-01  4.6756710374142452e-01  4.6757664921060987e-01  4.6758910519389502e-01  4.6760485399241214e-01  4.6762417312312449e-01  4.6764718724040288e-01  4.6767382580574718e-01  4.6770378704571225e-01  4.6773650963465319e-01  4.6777115480819087e-01  4.6780660326408169e-01  4.6784147318146330e-01  4.6787416789611985e-01  4.6790296406921539e-01  4.6792615336990595e-01  4.6794225239556364e-01  4.6795029620612322e-01  4.6795022956630888e-01  4.6794340550479457e-01  4.6793319142900991e-01  4.6792566678896241e-01  4.6793037122724079e-01  4.6796102715034371e-01  4.6803611653561983e-01  4.6817914274857969e-01  4.6841836293113354e-01  4.6878574874834117e-01  4.6931494065288548e-01  4.7003802360547259e-01  4.7098109050312792e-01  4.7215878529831035e-01  4.7356831335459443e-01  4.7518369436014057e-01  4.7695118493854699e-01  4.7878679998663004e-01  4.8057717978933373e-01  4.8218587371442573e-01  4.8346595270080822e-01  4.8427920424038728e-01  4.8452925119633966e-01  4.8420902859003562e-01  4.8343733184407883e-01  4.8244967659454141e-01  4.8154531612633755e-01  4.8101032317717374e-01  4.8103747256517915e-01  4.8165508326742390e-01  4.8270867058892658e-01  4.8391752021742385e-01  4.8496496128319061e-01  4.8557735173313465e-01  4.8558265663268824e-01  4.8493143483764722e-01  4.8368137116215004e-01  4.8196472120436634e-01  4.7995467766358701e-01  4.7783714691072543e-01  4.7578781375829832e-01  4.7395332197032236e-01  4.7243701548111489e-01  4.7129147743006455e-01  4.7051982229249428e-01  4.7008504719210664e-01  4.6992400780993815e-01  4.6996187813122542e-01  4.7012414412682701e-01  4.7034487033015104e-01  4.7057122909779703e-01  4.7076495316494971e-01  4.7090162432639088e-01  4.7096869640615180e-01  4.7096298206872333e-01  4.7088810696355365e-01  4.7075222310402898e-01  4.7056611273266574e-01  4.7034171023710492e-01  4.7009101241340462e-01  4.6982532157737084e-01  4.6955475884659170e-01  4.6928798748297879e-01  4.6903209318055616e-01  4.6879257673647851e-01  4.6857342324539436e-01  4.6837722017818328e-01  4.6820530420194045e-01  4.6805792329884199e-01  4.6793440659079438e-01  4.6783333909307151e-01  4.6775274186500715e-01  4.6769025859385088e-01  4.6764334600359858e-01  4.6760945743721832e-01  4.6758620398302914e-01  4.6757150184509794e-01  4.6756370829725391e-01  5.0013397467763909e-01  5.0012901448847780e-01  4.6755165189960229e-01  4.6755424246013738e-01  4.6755848967201108e-01  4.6756448506461518e-01  4.6757231802029653e-01  4.6758208792473771e-01  4.6759390353737346e-01  4.6760785988372600e-01  4.6762400401103754e-01  4.6764229946345498e-01  4.6766259519308850e-01  4.6768460214589741e-01  4.6770787998531183e-01  4.6773183674945779e-01  4.6775574518247165e-01  4.6777878070550744e-01  4.6780008726954508e-01  4.6781887845430403e-01  4.6783458189957222e-01  4.6784703513120590e-01  4.6785673957777613e-01  4.6786517637561759e-01  4.6787518152854946e-01  4.6789136805483644e-01  4.6792056786312541e-01  4.6797224560413714e-01  4.6805881112012887e-01  4.6819572897561895e-01  4.6840129879690445e-01  4.6869596865062568e-01  4.6910105856020629e-01  4.6963682539110752e-01  4.7031989937000535e-01  4.7116025494144576e-01  4.7215800746555653e-01  4.7330039257214085e-01  4.7455923240149783e-01  4.7588904462495552e-01  4.7722596124702393e-01  4.7848857153318858e-01  4.7958293844466898e-01  4.8040977802297535e-01  4.8087216695603097e-01  4.8090033682350081e-01  4.8049534119449783e-01  4.7975581254982025e-01  4.7886271256688262e-01  4.7805053253356528e-01  4.7756427311412558e-01  4.7758702669664888e-01  4.7816106219111704e-01  4.7916255486675352e-01  4.8034672349226204e-01  4.8143259930532567e-01  4.8218212121176862e-01  4.8245927096102570e-01  4.8223668299085143e-01  4.8155998752682927e-01  4.8051333885039560e-01  4.7919987212745707e-01  4.7773139168717510e-01  4.7621969547821524e-01  4.7476729379794169e-01  4.7345830566052599e-01  4.7235130109051615e-01  4.7147586001620956e-01  4.7083372411244506e-01  4.7040399982020109e-01  4.7015073276650882e-01  4.7003085153968033e-01  4.7000091285862627e-01  4.7002185339634012e-01  4.7006166237869385e-01  4.7009633168381615e-01  4.7010960569165355e-01  4.7009202884864260e-01  4.7003967636577881e-01  4.6995282557399665e-01  4.6983471872091787e-01  4.6969049235774751e-01  4.6952630041372190e-01  4.6934862998181742e-01  4.6916379372545036e-01  4.6897757563800430e-01  4.6879500447340361e-01  4.6862022962808220e-01  4.6845647645881061e-01  4.6830606125429508e-01  4.6817044984944567e-01  4.6805034779218713e-01  4.6794581364774257e-01  4.6785638989397588e-01  4.6778124699634271e-01  4.6771933421659562e-01  4.6766952398939005e-01  4.6763072615008489e-01  4.6760194598371552e-01  4.6758231716701487e-01  4.6757121764923271e-01  5.0013678967638031e-01  5.0013050755399147e-01  4.6755488872958811e-01  4.6755839169850694e-01  4.6756379451344177e-01  4.6757099898164994e-01  4.6757987821449171e-01  4.6759026877786042e-01  4.6760199779531259e-01  4.6761489474067253e-01  4.6762878378960615e-01  4.6764346718560507e-01  4.6765870915898672e-01  4.6767422683026438e-01  4.6768969249170572e-01  4.6770475088585312e-01  4.6771905512504675e-01  4.6773232526353331e-01  4.6774443387860676e-01  4.6775552304050916e-01  4.6776615644405045e-01  4.6777750888418335e-01  4.6779159223916167e-01  4.6781151214370109e-01  4.6784174199978829e-01  4.6788839035224622e-01  4.6795942373935651e-01  4.6806479047884902e-01  4.6821637350738599e-01  4.6842768670716894e-01  4.6871322645959634e-01  4.6908740853482161e-01  4.6956307038917117e-01  4.7014960587087057e-01  4.7085091389757788e-01  4.7166344916868203e-01  4.7257469215767756e-01  4.7356221671429688e-01  4.7459317474104351e-01  4.7562359241129659e-01  4.7659709029982722e-01  4.7744530309501437e-01  4.7809492945506143e-01  4.7847479605185866e-01  4.7851623470118387e-01  4.7817811563180651e-01  4.7749362458010786e-01  4.7659057227712270e-01  4.7564505774954507e-01  4.7483736940219806e-01  4.7436102839649674e-01  4.7437026405908722e-01  4.7491842516090649e-01  4.7594703228485147e-01  4.7728913984254157e-01  4.7869951212586576e-01  4.7991181427637036e-01  4.8072808394567668e-01  4.8108502816790710e-01  4.8100892300650044e-01  4.8055715505918772e-01  4.7979533361161880e-01  4.7879488993206343e-01  4.7763247783888740e-01  4.7638736569673473e-01  4.7513686042694192e-01  4.7395014846251077e-01  4.7288193943148726e-01  4.7196796004872466e-01  4.7122373439032073e-01  4.7064673367023407e-01  4.7022083740016613e-01  4.6992162880130867e-01  4.6972128396895835e-01  4.6959235226248752e-01  4.6951023822327537e-01  4.6945452534156012e-01  4.6940942110413486e-01  4.6936361338971050e-01  4.6930977874680457e-01  4.6924391919099223e-01  4.6916464747983111e-01  4.6907249737008755e-01  4.6896930413120241e-01  4.6885767873424961e-01  4.6874058410185421e-01  4.6862101177491555e-01  4.6850175110088899e-01  4.6838523968100981e-01  4.6827348259463525e-01  4.6816802817942771e-01  4.6806998921957549e-01  4.6798009956206765e-01  4.6789879661455996e-01  4.6782631900042054e-01  4.6776280534017162e-01  4.6770837568385271e-01  4.6766317600160257e-01  4.6762737996683701e-01  4.6760121947784067e-01  4.6758525513017779e-01  5.0014239083541390e-01  5.0013279972920210e-01  4.6755971880027658e-01  4.6756418989862136e-01  4.6757079739580154e-01  4.6757921910422717e-01  4.6758915833422626e-01  4.6760028165568052e-01  4.6761223126795626e-01  4.6762465030669298e-01  4.6763719725268016e-01  4.6764955017555548e-01  4.6766140830950975e-01  4.6767249859249915e-01  4.6768259329772632e-01  4.6769154359449644e-01  4.6769933311857459e-01  4.6770615518550007e-01  4.6771251678883091e-01  4.6771937162611188e-01  4.6772828272589201e-01  4.6774161242339746e-01  4.6776273303395127e-01  4.6779624517098944e-01  4.6784818189069499e-01  4.6792616560497924e-01  4.6803947146047603e-01  4.6819893719744810e-01  4.6841664872304911e-01  4.6870532852745694e-01  4.6907736901243441e-01  4.6954349458593742e-01  4.7011111253144938e-01  4.7078252103408208e-01  4.7155326006123272e-01  4.7241095889381890e-01  4.7333494944872656e-01  4.7429653594853216e-01  4.7525903545190701e-01  4.7617578587661419e-01  4.7698490679380068e-01  4.7760672887655647e-01  4.7795779140700262e-01  4.7796577360621290e-01  4.7756934261324135e-01  4.7676429657709579e-01  4.7565031062309138e-01  4.7442917760031705e-01  4.7332368119209428e-01  4.9911303923223527e-01  5.0463735466331694e-01  5.0463186990026243e-01  5.0513280281897022e-01  5.0019540931946982e-01  4.7517636997311813e-01  4.7710707523951068e-01  4.7910606889580298e-01  4.8077724993177617e-01  4.8188101615406015e-01  4.8238178086979572e-01  4.8234485117481779e-01  4.8186176387252971e-01  4.8102694329117573e-01  4.7992957639116612e-01  4.7865358682190257e-01  4.7728054955200228e-01  4.7588964944797352e-01  4.7455318711253835e-01  4.7333015253226762e-01  4.7226120592071108e-01  4.7136700322446023e-01  4.7064995427316481e-01  4.7009829433171446e-01  4.6969102366502491e-01  4.6940255520414637e-01  4.6920641916509587e-01  4.6907782827173539e-01  4.6899519572598342e-01  4.6894082598593478e-01  4.6890101988658367e-01  4.6886580488358887e-01  4.6882845410780422e-01  4.6878491233030861e-01  4.6873320918798816e-01  4.6867291091699975e-01  4.6860464026738119e-01  4.6852967877656737e-01  4.6844965488116186e-01  4.6836631437634196e-01  4.6828136555721528e-01  4.6819638912395334e-01  4.6811280173969977e-01  4.6803186114376610e-01  4.6795469923175975e-01  4.6788236740386668e-01  4.6781587725663643e-01  4.6775622385126608e-01  4.6770439509122125e-01  4.6766140003860940e-01  4.6762840099503505e-01  4.6760711513366748e-01  5.0015152033298449e-01  5.0013611231749933e-01  4.6756645243723577e-01  4.6757168554650930e-01  4.6757934213087943e-01  4.6758883134927648e-01  4.6759967859819868e-01  4.6761143120653909e-01  4.6762362619252068e-01  4.6763580034627023e-01  4.6764751242346991e-01  4.6765836404009076e-01  4.6766801881854358e-01  4.6767622519102009e-01  4.6768284934903215e-01  4.6768792410998233e-01  4.6769171841967300e-01  4.6769483117309668e-01  4.6769831186310062e-01  4.6770380892472790e-01  4.6771374414405176e-01  4.6773150773627992e-01  4.6776166326123136e-01  4.6781014407852312e-01  4.6788441336413344e-01  4.6799354803141419e-01  4.6814819423126497e-01  4.6836033080586553e-01  4.6864277149317257e-01  4.6900834365586647e-01  4.6946870987831113e-01  4.7003285825747892e-01  4.7070538239398724e-01  4.7148479444073049e-01  4.7236222898987967e-01  4.7332092303213874e-01  4.7433665409464709e-01  4.7537865908332905e-01  4.7640917305284602e-01  4.7737774553495921e-01  4.7820664529860546e-01  4.7877923667862032e-01  4.7896681347135778e-01  4.7866382573321259e-01  4.7779358418632445e-01  4.7641357726609784e-01  4.7475777742298247e-01  4.9983514347386815e-01  5.0454779562971708e-01  5.0823348923637923e-01  5.1716928737886847e-01  5.1720069582134087e-01  5.1775220745348127e-01  5.1888690919366720e-01  5.1125894298836461e-01  5.0320663221317929e-01  4.7955304048907554e-01  4.8238635340368130e-01  4.8445979306997983e-01  4.8555957350053303e-01  4.8575893851468799e-01  4.8525809826311961e-01  4.8426523183785608e-01  4.8294192624172183e-01  4.8140387654196287e-01  4.7974215341692616e-01  4.7803961583087551e-01  4.7637493184677498e-01  4.7481797370235168e-01  4.7342299336615939e-01  4.7222409030506457e-01  4.7123460001735135e-01  4.7044989508868307e-01  4.6985213108174301e-01  4.6941544126491347e-01  4.6911053423603410e-01  4.6890819141972401e-01  4.6878158167903344e-01  4.6870754953455807e-01  4.6866712395085058e-01  4.6864549471404765e-01  4.6863166251874705e-01  4.6861791765681438e-01  4.6859925540957809e-01  4.6857279883558905e-01  4.6853727180780053e-01  4.6849254534920493e-01  4.6843926670805008e-01  4.6837857157492879e-01  4.6831187402325614e-01  4.6824072501303382e-01  4.6816672765557593e-01  4.6809149513321419e-01  4.6801663498991591e-01  4.6794374260462790e-01  4.6787439090807165e-01  4.6781012024487445e-01  4.6775246737853859e-01  4.6770310527959325e-01  4.6766412754434067e-01  4.6763832962470825e-01  5.0016518005755617e-01  5.0014069174279663e-01  4.6757545161879860e-01  4.6758094426986907e-01  4.6758925705426435e-01  4.6759951549977080e-01  4.6761101882797662e-01  4.6762319496594584e-01  4.6763551743824255e-01  4.6764747599539602e-01  4.6765858790676168e-01  4.6766842567329114e-01  4.6767664979749585e-01  4.6768304655385717e-01  4.6768757561328922e-01  4.6769043333606169e-01  4.6769213688145761e-01  4.6769363304026290e-01  4.6769643408031142e-01  4.6770278070629995e-01  4.6771582911832660e-01  4.6773985470022994e-01  4.6778045869007667e-01  4.6784475598543662e-01  4.6794151197573242e-01  4.6808118445485641e-01  4.6827581468279422e-01  4.6853870249102558e-01  4.6888379903932498e-01  4.6932476493356856e-01  4.6987368022278031e-01  4.7053946495532833e-01  4.7132617693019946e-01  4.7223148359911366e-01  4.7324571369721491e-01  4.7435188444675580e-01  4.7552678626979983e-01  4.7674224823972833e-01  4.7796354289080500e-01  4.7913811856034094e-01  4.8016568092612788e-01  4.8086696271869145e-01  4.8102404917106545e-01  4.8044724023380037e-01  4.7902944604262138e-01  4.7694237486243918e-01  5.0133346545072954e-01  5.0982811945813022e-01  5.1761231531625529e-01  5.1645925125631509e-01  5.1599166390654461e-01  5.1577024039408603e-01  5.1640321333755768e-01  5.1707652167751883e-01  5.1959908182437176e-01  5.2350431549048815e-01  5.1410322155294674e-01  4.8560303933765397e-01  4.8884197333693913e-01  4.9060044298625433e-01  4.9088170943551324e-01  4.9003888699855308e-01  4.8852195516029012e-01  4.8665086155131110e-01  4.8460351712724076e-01  4.8248041847606449e-01  4.8035632035136044e-01  4.7830168399244444e-01  4.7638341400605538e-01  4.7465752069026157e-01  4.7316212795306367e-01  4.7191446188337277e-01  4.7091211750199768e-01  4.7013724055389078e-01  4.6956188266863458e-01  4.6915314113819884e-01  4.6887729357170044e-01  4.6870267047963360e-01  4.6860135184397933e-01  4.6854993274079637e-01  4.6852963576847628e-01  4.6852601453121367e-01  4.6852843558353424e-01  4.6852946979888821e-01  4.6852427789717399e-01  4.6851004074265479e-01  4.6848546140696196e-01  4.6845035032346916e-01  4.6840529473815645e-01  4.6835140716830442e-01  4.6829014325954138e-01  4.6822317625057275e-01  4.6815231270979091e-01  4.6807943281256031e-01  4.6800644073871905e-01  4.6793522279146116e-01  4.6786764160828370e-01  4.6780564517182577e-01  4.6775158643302539e-01  4.6770864191125638e-01  4.6768050125564903e-01  5.0018449100883988e-01  5.0014677613944969e-01  4.6758708059541298e-01  4.6759205558734923e-01  4.6760039151607197e-01  4.6761096678433495e-01  4.6762279204606755e-01  4.6763513952955166e-01  4.6764742370512818e-01  4.6765911867149584e-01  4.6766974169248376e-01  4.6767887545249820e-01  4.6768620737494343e-01  4.6769157875672462e-01  4.6769504517194588e-01  4.6769695287457058e-01  4.6769803626896816e-01  4.6769954051000678e-01  4.6770337153228408e-01  4.6771227329833925e-01  4.6773002852567114e-01  4.6776167423739784e-01  4.6781371682300787e-01  4.6789432267518588e-01  4.6801344998155348e-01  4.6818287561259836e-01  4.6841606003796593e-01  4.6872778622081546e-01  4.6913351102799539e-01  4.6964838767644423e-01  4.7028596431687625e-01  4.7105664473697539e-01  4.7196611252952275e-01  4.7301405232429128e-01  4.7419359928188404e-01  4.7549189795083069e-01  4.7689172145770969e-01  4.7837280657048037e-01  4.7990842163075365e-01  4.8144637211313190e-01  4.8285724366621424e-01  4.8387607035598029e-01  4.8415590127216246e-01  4.8332892935580585e-01  4.8119557462248536e-01  5.0510125512297821e-01  5.1179189812206549e-01  5.1803139198441162e-01  5.1660986987048851e-01  5.1431895605047151e-01  5.1431895605070188e-01  5.1431895605098865e-01  5.1431895605055677e-01  5.1431895605126177e-01  5.1431895605130129e-01  5.1992089334656955e-01  5.2773449052011290e-01  5.2394739148238312e-01  4.9541180994916378e-01  4.9777005386101164e-01  4.9796704261819058e-01  4.9643031184962011e-01  4.9396156717814471e-01  4.9116369893752665e-01  4.8831920822337660e-01  4.8553458279921502e-01  4.8285951362204604e-01  4.8033823537116760e-01  4.7801903581235383e-01  4.7594704344568622e-01  4.7415469080323136e-01  4.7265599364288147e-01  4.7144586851046516e-01  4.7050330016971170e-01  4.6979642946419609e-01  4.6928786596351785e-01  4.6893916250545364e-01  4.6871401780953514e-01  4.6858021142942324e-01  4.6851050142416639e-01  4.6848278282043115e-01  4.6847978181341032e-01  4.6848850021649907e-01  4.6849955953763034e-01  4.6850653938761411e-01  4.6850536477056642e-01  4.6849376974888385e-01  4.6847084778288806e-01  4.6843668850086906e-01  4.6839209421165950e-01  4.6833836534997664e-01  4.6827714119340164e-01  4.6821028045086344e-01  4.6813976698744408e-01  4.6806763288709247e-01  4.6799591184984662e-01  4.6792667978221453e-01  4.6786229890557579e-01  4.6780596138797215e-01  4.6776216034864776e-01  4.6773513822697982e-01  5.0021054853700053e-01  5.0015456684712467e-01  4.6760165664861764e-01  4.6760511645880876e-01  4.6761263241540552e-01  4.6762292408732675e-01  4.6763465469852589e-01  4.6764688679169364e-01  4.6765895389880752e-01  4.6767032034839845e-01  4.6768052531410792e-01  4.6768918834248974e-01  4.6769604700350303e-01  4.6770101218113130e-01  4.6770423810030426e-01  4.6770620980883443e-01  4.6770785252598074e-01  4.6771066685997692e-01  4.6771689228510405e-01  4.6772969867188235e-01  4.6775340193069109e-01  4.6779369466215187e-01  4.67857875814