<?xml version="1.0"?>
<VTKFile type="UnstructuredGrid"  version="0.1"  >
<UnstructuredGrid>
<Piece  NumberOfPoints="5151" NumberOfCells="10000">
<Points>
<DataArray  type="Float64"  NumberOfComponents="3"  format="ascii">0 0 0  0.02 0 0  0.04 0 0  0.06 0 0  0.08 0 0  0.1 0 0  0.12 0 0  0.14 0 0  0.16 0 0  0.18 0 0  0.2 0 0  0.22 0 0  0.24 0 0  0.26 0 0  0.28 0 0  0.3 0 0  0.32 0 0  0.34 0 0  0.36 0 0  0.38 0 0  0.4 0 0  0.42 0 0  0.44 0 0  0.46 0 0  0.48 0 0  0.5 0 0  0.52 0 0  0.54 0 0  0.5600000000000001 0 0  0.58 0 0  0.6 0 0  0.62 0 0  0.64 0 0  0.66 0 0  0.68 0 0  0.7 0 0  0.72 0 0  0.74 0 0  0.76 0 0  0.78 0 0  0.8 0 0  0.82 0 0  0.84 0 0  0.86 0 0  0.88 0 0  0.9 0 0  0.92 0 0  0.9399999999999999 0 0  0.96 0 0  0.98 0 0  1 0 0  1.02 0 0  1.04 0 0  1.06 0 0  1.08 0 0  1.1 0 0  1.12 0 0  1.14 0 0  1.16 0 0  1.18 0 0  1.2 0 0  1.22 0 0  1.24 0 0  1.26 0 0  1.28 0 0  1.3 0 0  1.32 0 0  1.34 0 0  1.36 0 0  1.38 0 0  1.4 0 0  1.42 0 0  1.44 0 0  1.46 0 0  1.48 0 0  1.5 0 0  1.52 0 0  1.54 0 0  1.56 0 0  1.58 0 0  1.6 0 0  1.62 0 0  1.64 0 0  1.66 0 0  1.68 0 0  1.7 0 0  1.72 0 0  1.74 0 0  1.76 0 0  1.78 0 0  1.8 0 0  1.82 0 0  1.84 0 0  1.86 0 0  1.88 0 0  1.9 0 0  1.92 0 0  1.94 0 0  1.96 0 0  1.98 0 0  2 0 0  0 0.02 0  0.02 0.02 0  0.04 0.02 0  0.06 0.02 0  0.08 0.02 0  0.1 0.02 0  0.12 0.02 0  0.14 0.02 0  0.16 0.02 0  0.18 0.02 0  0.2 0.02 0  0.22 0.02 0  0.24 0.02 0  0.26 0.02 0  0.28 0.02 0  0.3 0.02 0  0.32 0.02 0  0.34 0.02 0  0.36 0.02 0  0.38 0.02 0  0.4 0.02 0  0.42 0.02 0  0.44 0.02 0  0.46 0.02 0  0.48 0.02 0  0.5 0.02 0  0.52 0.02 0  0.54 0.02 0  0.5600000000000001 0.02 0  0.58 0.02 0  0.6 0.02 0  0.62 0.02 0  0.64 0.02 0  0.66 0.02 0  0.68 0.02 0  0.7 0.02 0  0.72 0.02 0  0.74 0.02 0  0.76 0.02 0  0.78 0.02 0  0.8 0.02 0  0.82 0.02 0  0.84 0.02 0  0.86 0.02 0  0.88 0.02 0  0.9 0.02 0  0.92 0.02 0  0.9399999999999999 0.02 0  0.96 0.02 0  0.98 0.02 0  1 0.02 0  1.02 0.02 0  1.04 0.02 0  1.06 0.02 0  1.08 0.02 0  1.1 0.02 0  1.12 0.02 0  1.14 0.02 0  1.16 0.02 0  1.18 0.02 0  1.2 0.02 0  1.22 0.02 0  1.24 0.02 0  1.26 0.02 0  1.28 0.02 0  1.3 0.02 0  1.32 0.02 0  1.34 0.02 0  1.36 0.02 0  1.38 0.02 0  1.4 0.02 0  1.42 0.02 0  1.44 0.02 0  1.46 0.02 0  1.48 0.02 0  1.5 0.02 0  1.52 0.02 0  1.54 0.02 0  1.56 0.02 0  1.58 0.02 0  1.6 0.02 0  1.62 0.02 0  1.64 0.02 0  1.66 0.02 0  1.68 0.02 0  1.7 0.02 0  1.72 0.02 0  1.74 0.02 0  1.76 0.02 0  1.78 0.02 0  1.8 0.02 0  1.82 0.02 0  1.84 0.02 0  1.86 0.02 0  1.88 0.02 0  1.9 0.02 0  1.92 0.02 0  1.94 0.02 0  1.96 0.02 0  1.98 0.02 0  2 0.02 0  0 0.04 0  0.02 0.04 0  0.04 0.04 0  0.06 0.04 0  0.08 0.04 0  0.1 0.04 0  0.12 0.04 0  0.14 0.04 0  0.16 0.04 0  0.18 0.04 0  0.2 0.04 0  0.22 0.04 0  0.24 0.04 0  0.26 0.04 0  0.28 0.04 0  0.3 0.04 0  0.32 0.04 0  0.34 0.04 0  0.36 0.04 0  0.38 0.04 0  0.4 0.04 0  0.42 0.04 0  0.44 0.04 0  0.46 0.04 0  0.48 0.04 0  0.5 0.04 0  0.52 0.04 0  0.54 0.04 0  0.5600000000000001 0.04 0  0.58 0.04 0  0.6 0.04 0  0.62 0.04 0  0.64 0.04 0  0.66 0.04 0  0.68 0.04 0  0.7 0.04 0  0.72 0.04 0  0.74 0.04 0  0.76 0.04 0  0.78 0.04 0  0.8 0.04 0  0.82 0.04 0  0.84 0.04 0  0.86 0.04 0  0.88 0.04 0  0.9 0.04 0  0.92 0.04 0  0.9399999999999999 0.04 0  0.96 0.04 0  0.98 0.04 0  1 0.04 0  1.02 0.04 0  1.04 0.04 0  1.06 0.04 0  1.08 0.04 0  1.1 0.04 0  1.12 0.04 0  1.14 0.04 0  1.16 0.04 0  1.18 0.04 0  1.2 0.04 0  1.22 0.04 0  1.24 0.04 0  1.26 0.04 0  1.28 0.04 0  1.3 0.04 0  1.32 0.04 0  1.34 0.04 0  1.36 0.04 0  1.38 0.04 0  1.4 0.04 0  1.42 0.04 0  1.44 0.04 0  1.46 0.04 0  1.48 0.04 0  1.5 0.04 0  1.52 0.04 0  1.54 0.04 0  1.56 0.04 0  1.58 0.04 0  1.6 0.04 0  1.62 0.04 0  1.64 0.04 0  1.66 0.04 0  1.68 0.04 0  1.7 0.04 0  1.72 0.04 0  1.74 0.04 0  1.76 0.04 0  1.78 0.04 0  1.8 0.04 0  1.82 0.04 0  1.84 0.04 0  1.86 0.04 0  1.88 0.04 0  1.9 0.04 0  1.92 0.04 0  1.94 0.04 0  1.96 0.04 0  1.98 0.04 0  2 0.04 0  0 0.06 0  0.02 0.06 0  0.04 0.06 0  0.06 0.06 0  0.08 0.06 0  0.1 0.06 0  0.12 0.06 0  0.14 0.06 0  0.16 0.06 0  0.18 0.06 0  0.2 0.06 0  0.22 0.06 0  0.24 0.06 0  0.26 0.06 0  0.28 0.06 0  0.3 0.06 0  0.32 0.06 0  0.34 0.06 0  0.36 0.06 0  0.38 0.06 0  0.4 0.06 0  0.42 0.06 0  0.44 0.06 0  0.46 0.06 0  0.48 0.06 0  0.5 0.06 0  0.52 0.06 0  0.54 0.06 0  0.5600000000000001 0.06 0  0.58 0.06 0  0.6 0.06 0  0.62 0.06 0  0.64 0.06 0  0.66 0.06 0  0.68 0.06 0  0.7 0.06 0  0.72 0.06 0  0.74 0.06 0  0.76 0.06 0  0.78 0.06 0  0.8 0.06 0  0.82 0.06 0  0.84 0.06 0  0.86 0.06 0  0.88 0.06 0  0.9 0.06 0  0.92 0.06 0  0.9399999999999999 0.06 0  0.96 0.06 0  0.98 0.06 0  1 0.06 0  1.02 0.06 0  1.04 0.06 0  1.06 0.06 0  1.08 0.06 0  1.1 0.06 0  1.12 0.06 0  1.14 0.06 0  1.16 0.06 0  1.18 0.06 0  1.2 0.06 0  1.22 0.06 0  1.24 0.06 0  1.26 0.06 0  1.28 0.06 0  1.3 0.06 0  1.32 0.06 0  1.34 0.06 0  1.36 0.06 0  1.38 0.06 0  1.4 0.06 0  1.42 0.06 0  1.44 0.06 0  1.46 0.06 0  1.48 0.06 0  1.5 0.06 0  1.52 0.06 0  1.54 0.06 0  1.56 0.06 0  1.58 0.06 0  1.6 0.06 0  1.62 0.06 0  1.64 0.06 0  1.66 0.06 0  1.68 0.06 0  1.7 0.06 0  1.72 0.06 0  1.74 0.06 0  1.76 0.06 0  1.78 0.06 0  1.8 0.06 0  1.82 0.06 0  1.84 0.06 0  1.86 0.06 0  1.88 0.06 0  1.9 0.06 0  1.92 0.06 0  1.94 0.06 0  1.96 0.06 0  1.98 0.06 0  2 0.06 0  0 0.08 0  0.02 0.08 0  0.04 0.08 0  0.06 0.08 0  0.08 0.08 0  0.1 0.08 0  0.12 0.08 0  0.14 0.08 0  0.16 0.08 0  0.18 0.08 0  0.2 0.08 0  0.22 0.08 0  0.24 0.08 0  0.26 0.08 0  0.28 0.08 0  0.3 0.08 0  0.32 0.08 0  0.34 0.08 0  0.36 0.08 0  0.38 0.08 0  0.4 0.08 0  0.42 0.08 0  0.44 0.08 0  0.46 0.08 0  0.48 0.08 0  0.5 0.08 0  0.52 0.08 0  0.54 0.08 0  0.5600000000000001 0.08 0  0.58 0.08 0  0.6 0.08 0  0.62 0.08 0  0.64 0.08 0  0.66 0.08 0  0.68 0.08 0  0.7 0.08 0  0.72 0.08 0  0.74 0.08 0  0.76 0.08 0  0.78 0.08 0  0.8 0.08 0  0.82 0.08 0  0.84 0.08 0  0.86 0.08 0  0.88 0.08 0  0.9 0.08 0  0.92 0.08 0  0.9399999999999999 0.08 0  0.96 0.08 0  0.98 0.08 0  1 0.08 0  1.02 0.08 0  1.04 0.08 0  1.06 0.08 0  1.08 0.08 0  1.1 0.08 0  1.12 0.08 0  1.14 0.08 0  1.16 0.08 0  1.18 0.08 0  1.2 0.08 0  1.22 0.08 0  1.24 0.08 0  1.26 0.08 0  1.28 0.08 0  1.3 0.08 0  1.32 0.08 0  1.34 0.08 0  1.36 0.08 0  1.38 0.08 0  1.4 0.08 0  1.42 0.08 0  1.44 0.08 0  1.46 0.08 0  1.48 0.08 0  1.5 0.08 0  1.52 0.08 0  1.54 0.08 0  1.56 0.08 0  1.58 0.08 0  1.6 0.08 0  1.62 0.08 0  1.64 0.08 0  1.66 0.08 0  1.68 0.08 0  1.7 0.08 0  1.72 0.08 0  1.74 0.08 0  1.76 0.08 0  1.78 0.08 0  1.8 0.08 0  1.82 0.08 0  1.84 0.08 0  1.86 0.08 0  1.88 0.08 0  1.9 0.08 0  1.92 0.08 0  1.94 0.08 0  1.96 0.08 0  1.98 0.08 0  2 0.08 0  0 0.1 0  0.02 0.1 0  0.04 0.1 0  0.06 0.1 0  0.08 0.1 0  0.1 0.1 0  0.12 0.1 0  0.14 0.1 0  0.16 0.1 0  0.18 0.1 0  0.2 0.1 0  0.22 0.1 0  0.24 0.1 0  0.26 0.1 0  0.28 0.1 0  0.3 0.1 0  0.32 0.1 0  0.34 0.1 0  0.36 0.1 0  0.38 0.1 0  0.4 0.1 0  0.42 0.1 0  0.44 0.1 0  0.46 0.1 0  0.48 0.1 0  0.5 0.1 0  0.52 0.1 0  0.54 0.1 0  0.5600000000000001 0.1 0  0.58 0.1 0  0.6 0.1 0  0.62 0.1 0  0.64 0.1 0  0.66 0.1 0  0.68 0.1 0  0.7 0.1 0  0.72 0.1 0  0.74 0.1 0  0.76 0.1 0  0.78 0.1 0  0.8 0.1 0  0.82 0.1 0  0.84 0.1 0  0.86 0.1 0  0.88 0.1 0  0.9 0.1 0  0.92 0.1 0  0.9399999999999999 0.1 0  0.96 0.1 0  0.98 0.1 0  1 0.1 0  1.02 0.1 0  1.04 0.1 0  1.06 0.1 0  1.08 0.1 0  1.1 0.1 0  1.12 0.1 0  1.14 0.1 0  1.16 0.1 0  1.18 0.1 0  1.2 0.1 0  1.22 0.1 0  1.24 0.1 0  1.26 0.1 0  1.28 0.1 0  1.3 0.1 0  1.32 0.1 0  1.34 0.1 0  1.36 0.1 0  1.38 0.1 0  1.4 0.1 0  1.42 0.1 0  1.44 0.1 0  1.46 0.1 0  1.48 0.1 0  1.5 0.1 0  1.52 0.1 0  1.54 0.1 0  1.56 0.1 0  1.58 0.1 0  1.6 0.1 0  1.62 0.1 0  1.64 0.1 0  1.66 0.1 0  1.68 0.1 0  1.7 0.1 0  1.72 0.1 0  1.74 0.1 0  1.76 0.1 0  1.78 0.1 0  1.8 0.1 0  1.82 0.1 0  1.84 0.1 0  1.86 0.1 0  1.88 0.1 0  1.9 0.1 0  1.92 0.1 0  1.94 0.1 0  1.96 0.1 0  1.98 0.1 0  2 0.1 0  0 0.12 0  0.02 0.12 0  0.04 0.12 0  0.06 0.12 0  0.08 0.12 0  0.1 0.12 0  0.12 0.12 0  0.14 0.12 0  0.16 0.12 0  0.18 0.12 0  0.2 0.12 0  0.22 0.12 0  0.24 0.12 0  0.26 0.12 0  0.28 0.12 0  0.3 0.12 0  0.32 0.12 0  0.34 0.12 0  0.36 0.12 0  0.38 0.12 0  0.4 0.12 0  0.42 0.12 0  0.44 0.12 0  0.46 0.12 0  0.48 0.12 0  0.5 0.12 0  0.52 0.12 0  0.54 0.12 0  0.5600000000000001 0.12 0  0.58 0.12 0  0.6 0.12 0  0.62 0.12 0  0.64 0.12 0  0.66 0.12 0  0.68 0.12 0  0.7 0.12 0  0.72 0.12 0  0.74 0.12 0  0.76 0.12 0  0.78 0.12 0  0.8 0.12 0  0.82 0.12 0  0.84 0.12 0  0.86 0.12 0  0.88 0.12 0  0.9 0.12 0  0.92 0.12 0  0.9399999999999999 0.12 0  0.96 0.12 0  0.98 0.12 0  1 0.12 0  1.02 0.12 0  1.04 0.12 0  1.06 0.12 0  1.08 0.12 0  1.1 0.12 0  1.12 0.12 0  1.14 0.12 0  1.16 0.12 0  1.18 0.12 0  1.2 0.12 0  1.22 0.12 0  1.24 0.12 0  1.26 0.12 0  1.28 0.12 0  1.3 0.12 0  1.32 0.12 0  1.34 0.12 0  1.36 0.12 0  1.38 0.12 0  1.4 0.12 0  1.42 0.12 0  1.44 0.12 0  1.46 0.12 0  1.48 0.12 0  1.5 0.12 0  1.52 0.12 0  1.54 0.12 0  1.56 0.12 0  1.58 0.12 0  1.6 0.12 0  1.62 0.12 0  1.64 0.12 0  1.66 0.12 0  1.68 0.12 0  1.7 0.12 0  1.72 0.12 0  1.74 0.12 0  1.76 0.12 0  1.78 0.12 0  1.8 0.12 0  1.82 0.12 0  1.84 0.12 0  1.86 0.12 0  1.88 0.12 0  1.9 0.12 0  1.92 0.12 0  1.94 0.12 0  1.96 0.12 0  1.98 0.12 0  2 0.12 0  0 0.14 0  0.02 0.14 0  0.04 0.14 0  0.06 0.14 0  0.08 0.14 0  0.1 0.14 0  0.12 0.14 0  0.14 0.14 0  0.16 0.14 0  0.18 0.14 0  0.2 0.14 0  0.22 0.14 0  0.24 0.14 0  0.26 0.14 0  0.28 0.14 0  0.3 0.14 0  0.32 0.14 0  0.34 0.14 0  0.36 0.14 0  0.38 0.14 0  0.4 0.14 0  0.42 0.14 0  0.44 0.14 0  0.46 0.14 0  0.48 0.14 0  0.5 0.14 0  0.52 0.14 0  0.54 0.14 0  0.5600000000000001 0.14 0  0.58 0.14 0  0.6 0.14 0  0.62 0.14 0  0.64 0.14 0  0.66 0.14 0  0.68 0.14 0  0.7 0.14 0  0.72 0.14 0  0.74 0.14 0  0.76 0.14 0  0.78 0.14 0  0.8 0.14 0  0.82 0.14 0  0.84 0.14 0  0.86 0.14 0  0.88 0.14 0  0.9 0.14 0  0.92 0.14 0  0.9399999999999999 0.14 0  0.96 0.14 0  0.98 0.14 0  1 0.14 0  1.02 0.14 0  1.04 0.14 0  1.06 0.14 0  1.08 0.14 0  1.1 0.14 0  1.12 0.14 0  1.14 0.14 0  1.16 0.14 0  1.18 0.14 0  1.2 0.14 0  1.22 0.14 0  1.24 0.14 0  1.26 0.14 0  1.28 0.14 0  1.3 0.14 0  1.32 0.14 0  1.34 0.14 0  1.36 0.14 0  1.38 0.14 0  1.4 0.14 0  1.42 0.14 0  1.44 0.14 0  1.46 0.14 0  1.48 0.14 0  1
[...]
<PointData  Scalars="sols[i]"> 
<DataArray  type="Float64"  Name="sols[i]"  format="ascii">4.1635108256035447e-05  2.7753816823644405e-05  2.7753816823645357e-05  2.7753816823647258e-05  2.7753816823650859e-05  2.7753816823657571e-05  2.7753816823669846e-05  2.7753816823692272e-05  2.7753816823732767e-05  2.7753816823805158e-05  2.7753816823933192e-05  2.7753816824156548e-05  2.7753816824540447e-05  2.7753816825189644e-05  2.7753816826267740e-05  2.7753816828022583e-05  2.7753816830817347e-05  2.7753816835162911e-05  2.7753816841744374e-05  2.7753816851429854e-05  2.7753816865242613e-05  2.7753816884278459e-05  2.7753816909555836e-05  2.7753816941801079e-05  2.7753816981198604e-05  2.7753817027161468e-05  2.7753817078184290e-05  2.7753817131823499e-05  2.7753817184811501e-05  2.7753817233289213e-05  2.7753817273156235e-05  2.7753817300548345e-05  2.7753817312426905e-05  2.7753817307196039e-05  2.7753817285196781e-05  2.7753817248892732e-05  2.7753817202617550e-05  2.7753817151912305e-05  2.7753817102673930e-05  2.7753817060420851e-05  2.7753817029920153e-05  2.7753817015271287e-05  2.7753817020404016e-05  2.7753817049876192e-05  2.7753817109866067e-05  2.7753817209295721e-05  2.7753817361066989e-05  2.7753817583406524e-05  2.7753817901290180e-05  2.7753818347833955e-05  2.7753818965416746e-05  2.7753819806138739e-05  2.7753820931064609e-05  2.7753822407615177e-05  2.7753824304541874e-05  2.7753826684228579e-05  2.7753829592661954e-05  2.7753833048353515e-05  2.7753837033100052e-05  2.7753841490532156e-05  2.7753846343380673e-05  2.7753851542668552e-05  2.7753857143968893e-05  2.7753863344299006e-05  2.7753870337500044e-05  2.7753877897773940e-05  2.7753884912827016e-05  2.7753889385598016e-05  2.7753889207962040e-05  2.7753883421441658e-05  2.7753873069447704e-05  2.7753860716578797e-05  2.7753849009160877e-05  2.7753839567151478e-05  2.7753832763267964e-05  2.7753828166169302e-05  2.7753825101601128e-05  2.7753822994818345e-05  2.7753821465070435e-05  2.7753820295519024e-05  2.7753819375902841e-05  2.7753818652846156e-05  2.7753818096303609e-05  2.7753817681891475e-05  2.7753817384785657e-05  2.7753817179806472e-05  2.7753817043491721e-05  2.7753816955885523e-05  2.7753816901317472e-05  2.7753816868280879e-05  2.7753816848788151e-05  2.7753816837551425e-05  2.7753816831208914e-05  2.7753816827696770e-05  2.7753816825785043e-05  2.7753816824761048e-05  2.7753816824221092e-05  2.7753816823941564e-05  2.7753816823801926e-05  2.7753816823740346e-05  8.3276328291370265e-05  2.7753816823644449e-05  1.3872108895400977e-05  1.3872108895401494e-05  1.3872108895402548e-05  1.3872108895404557e-05  1.3872108895408313e-05  1.3872108895415231e-05  1.3872108895427928e-05  1.3872108895451030e-05  1.3872108895492647e-05  1.3872108895566852e-05  1.3872108895697498e-05  1.3872108895924218e-05  1.3872108896311495e-05  1.3872108896961486e-05  1.3872108898031238e-05  1.3872108899754430e-05  1.3872108902465320e-05  1.3872108906620306e-05  1.3872108912808849e-05  1.3872108921740885e-05  1.3872108934195982e-05  1.3872108950923055e-05  1.3872108972489735e-05  1.3872108999100490e-05  1.3872109030424328e-05  1.3872109065481124e-05  1.3872109102621218e-05  1.3872109139600727e-05  1.3872109173734994e-05  1.3872109202128695e-05  1.3872109222000244e-05  1.3872109231098981e-05  1.3872109228161137e-05  1.3872109213295697e-05  1.3872109188154080e-05  1.3872109155766754e-05  1.3872109120055343e-05  1.3872109085186913e-05  1.3872109055011444e-05  1.3872109032771380e-05  1.3872109021150823e-05  1.3872109022623532e-05  1.3872109040008234e-05  1.3872109077149098e-05  1.3872109139677646e-05  1.3872109235848554e-05  1.3872109377457795e-05  1.3872109580835917e-05  1.3872109867855938e-05  1.3872110266808188e-05  1.3872110812878540e-05  1.3872111547843655e-05  1.3872112518514463e-05  1.3872113773480160e-05  1.3872115357892984e-05  1.3872117306407447e-05  1.3872119634930611e-05  1.3872122332711461e-05  1.3872125358306833e-05  1.3872128647590004e-05  1.3872132148002424e-05  1.3872135886661532e-05  1.3872140031165481e-05  1.3872144816728288e-05  1.3872150216324711e-05  1.3872155500647535e-05  1.3872159152617402e-05  1.3872159439492091e-05  1.3872155468850535e-05  1.3872147995293550e-05  1.3872139048058992e-05  1.3872130683978652e-05  1.3872124093164349e-05  1.3872119470441468e-05  1.3872116420709058e-05  1.3872114414552519e-05  1.3872113035509845e-05  1.3872112024564266e-05  1.3872111241625859e-05  1.3872110619414313e-05  1.3872110127391149e-05  1.3872109748401272e-05  1.3872109467081704e-05  1.3872109266547028e-05  1.3872109129201192e-05  1.3872109038605707e-05  1.3872108980876400e-05  1.3872108945225349e-05  1.3872108923822997e-05  1.3872108911297817e-05  1.3872108904134068e-05  1.3872108900120665e-05  1.3872108897913895e-05  1.3872108896720795e-05  1.3872108896085626e-05  1.3872108895752562e-05  1.3872108895580831e-05  1.3872108895494912e-05  1.3872108895455836e-05  2.7753816823730785e-05  2.7753816823645536e-05  1.3872108895401553e-05  1.3872108895402363e-05  1.3872108895404013e-05  1.3872108895407172e-05  1.3872108895413100e-05  1.3872108895424106e-05  1.3872108895444483e-05  1.3872108895481964e-05  1.3872108895550311e-05  1.3872108895673783e-05  1.3872108895894208e-05  1.3872108896282364e-05  1.3872108896955525e-05  1.3872108898103041e-05  1.3872108900021932e-05  1.3872108903163187e-05  1.3872108908185572e-05  1.3872108916008137e-05  1.3872108927844023e-05  1.3872108945186914e-05  1.3872108969714554e-05  1.3872109003078177e-05  1.3872109046570226e-05  1.3872109100711947e-05  1.3872109164860130e-05  1.3872109236958185e-05  1.3872109313513111e-05  1.3872109389780312e-05  1.3872109460083647e-05  1.3872109518268871e-05  1.3872109558373818e-05  1.3872109575541114e-05  1.3872109567054589e-05  1.3872109533248693e-05  1.3872109477917934e-05  1.3872109407898899e-05  1.3872109331845920e-05  1.3872109258658209e-05  1.3872109196183095e-05  1.3872109150629529e-05  1.3872109126783156e-05  1.3872109128853927e-05  1.3872109161704400e-05  1.3872109232267873e-05  1.3872109351080156e-05  1.3872109533943268e-05  1.3872109803777326e-05  1.3872110192683183e-05  1.3872110744125544e-05  1.3872111514955001e-05  1.3872112576724080e-05  1.3872114015455423e-05  1.3872115928791063e-05  1.3872118419447620e-05  1.3872121584282890e-05  1.3872125499043200e-05  1.3872130199728352e-05  1.3872135662415650e-05  1.3872141786496683e-05  1.3872148398860973e-05  1.3872155325280861e-05  1.3872162586893903e-05  1.3872170655228320e-05  1.3872180384616463e-05  1.3872192111328163e-05  1.3872204266668201e-05  1.3872213001231291e-05  1.3872213705493021e-05  1.3872204018463230e-05  1.3872186264606365e-05  1.3872166056171099e-05  1.3872148384464348e-05  1.3872135524429360e-05  1.3872127211851246e-05  1.3872122063085119e-05  1.3872118747520321e-05  1.3872116419977957e-05  1.3872114641535508e-05  1.3872113208665529e-05  1.3872112041659423e-05  1.3872111112356382e-05  1.3872110401670524e-05  1.3872109882911854e-05  1.3872109521379418e-05  1.3872109280067334e-05  1.3872109125177443e-05  1.3872109029177163e-05  1.3872108971500586e-05  1.3872108937794692e-05  1.3872108918576249e-05  1.3872108907856114e-05  1.3872108901992439e-05  1.3872108898841030e-05  1.3872108897173777e-05  1.3872108896304258e-05  1.3872108895857035e-05  1.3872108895630564e-05  1.3872108895519093e-05  1.3872108895469113e-05  2.7753816823748705e-05  2.7753816823647779e-05  1.3872108895402759e-05  1.3872108895404159e-05  1.3872108895407022e-05  1.3872108895412492e-05  1.3872108895422792e-05  1.3872108895442058e-05  1.3872108895478022e-05  1.3872108895544868e-05  1.3872108895668255e-05  1.3872108895894106e-05  1.3872108896303035e-05  1.3872108897033957e-05  1.3872108898321322e-05  1.3872108900551115e-05  1.3872108904341258e-05  1.3872108910649686e-05  1.3872108920906232e-05  1.3872108937150813e-05  1.3872108962138664e-05  1.3872108999343556e-05  1.3872109052765309e-05  1.3872109126448877e-05  1.3872109223677591e-05  1.3872109345933950e-05  1.3872109491893097e-05  1.3872109656807403e-05  1.3872109832508584e-05  1.3872110007917982e-05  1.3872110169773392e-05  1.3872110303570719e-05  1.3872110395069048e-05  1.3872110432497935e-05  1.3872110409167401e-05  1.3872110325877840e-05  1.3872110192087026e-05  1.3872110024800919e-05  1.3872109845218144e-05  1.3872109674506116e-05  1.3872109530495602e-05  1.3872109426388771e-05  1.3872109371541221e-05  1.3872109373708921e-05  1.3872109442035358e-05  1.3872109590305254e-05  1.3872109840334297e-05  1.3872110225616680e-05  1.3872110795445666e-05  1.3872111619642815e-05  1.3872112793772466e-05  1.3872114444267431e-05  1.3872116732243003e-05  1.3872119853995874e-05  1.3872124035504190e-05  1.3872129518100680e-05  1.3872136533392631e-05  1.3872145267474026e-05  1.3872155816207742e-05  1.3872168132673727e-05  1.3872181968175507e-05  1.3872196835388899e-05  1.3872212131160401e-05  1.3872227696263330e-05  1.3872244807265890e-05  1.3872266440112822e-05  1.3872294665339585e-05  1.3872325923225019e-05  1.3872349530269822e-05  1.3872351997557160e-05  1.3872326157837675e-05  1.3872279515948978e-05  1.3872229063128641e-05  1.3872187943766444e-05  1.3872160555504620e-05  1.3872144406665953e-05  1.3872135007581422e-05  1.3872128943044891e-05  1.3872124480846509e-05  1.3872120889652201e-05  1.3872117881708616e-05  1.3872115384336997e-05  1.3872113393477852e-05  1.3872111889040995e-05  1.3872110812703850e-05  1.3872110080864492e-05  1.3872109605419256e-05  1.3872109308695844e-05  1.3872109129917864e-05  1.3872109025477162e-05  1.3872108966096028e-05  1.3872108933130915e-05  1.3872108915212534e-05  1.3872108905653200e-05  1.3872108900637425e-05  1.3872108898044299e-05  1.3872108896721434e-05  1.3872108896055148e-05  1.3872108895724320e-05  1.3872108895564343e-05  1.3872108895493656e-05  2.7753816823783965e-05  2.7753816823652214e-05  1.3872108895405124e-05  1.3872108895407643e-05  1.3872108895412771e-05  1.3872108895422561e-05  1.3872108895441011e-05  1.3872108895475675e-05  1.3872108895540819e-05  1.3872108895662985e-05  1.3872108895890943e-05  1.3872108896313315e-05  1.3872108897088286e-05  1.3872108898493264e-05  1.3872108901004915e-05  1.3872108905423064e-05  1.3872108913053806e-05  1.3872108925964199e-05  1.3872108947306884e-05  1.3872108981682328e-05  1.3872109035451697e-05  1.3872109116833572e-05  1.3872109235537347e-05  1.3872109401660317e-05  1.3872109623695370e-05  1.3872109905846484e-05  1.3872110245371536e-05  1.3872110631016938e-05  1.3872111043226608e-05  1.3872111455648439e-05  1.3872111836792804e-05  1.3872112151852228e-05  1.3872112366083549e-05  1.3872112450267565e-05  1.3872112387386505e-05  1.3872112179190598e-05  1.3872111849698166e-05  1.3872111442231588e-05  1.3872111009985618e-05  1.3872110604438216e-05  1.3872110266837463e-05  1.3872110025495242e-05  1.3872109898495164e-05  1.3872109899756305e-05  1.3872110046408867e-05  1.3872110366343460e-05  1.3872110905781222e-05  1.3872111737354600e-05  1.3872112969396355e-05  1.3872114756937219e-05  1.3872117314316327e-05  1.3872120928252567e-05  1.3872125968630299e-05  1.3872132892193140e-05  1.3872142232325061e-05  1.3872154567338208e-05  1.3872170461926160e-05  1.3872190382363869e-05  1.3872214591406192e-05  1.3872243021313240e-05  1.3872275096446394e-05  1.3872309498761567e-05  1.3872344215071382e-05  1.3872377982224793e-05  1.3872413858186467e-05  1.3872461593442817e-05  1.3872529986465135e-05  1.3872609985073168e-05  1.3872671519526311e-05  1.3872677732531657e-05  1.3872607632504412e-05  1.3872484184233967e-05  1.3872358535721007e-05  1.3872264368604365e-05  1.3872208394807509e-05  1.3872178957630819e-05  1.3872162637520535e-05  1.3872151437187943e-05  1.3872142462221016e-05  1.3872134822916676e-05  1.3872128205198541e-05  1.3872122645806309e-05  1.3872118241998526e-05  1.3872114973656979e-05  1.3872112691889092e-05  1.3872111182644680e-05  1.3872110229973211e-05  1.3872109652374776e-05  1.3872109314154735e-05  1.3872109121987324e-05  1.3872109015629727e-05  1.3872108958098032e-05  1.3872108927596381e-05  1.3872108911708442e-05  1.3872108903560713e-05  1.3872108899439637e-05  1.3872108897380832e-05  1.3872108896364260e-05  1.3872108895868829e-05  1.3872108895633237e-05  1.3872108895530495e-05  2.7753816823837511e-05  2.7753816823660868e-05  1.3872108895409725e-05  1.3872108895414321e-05  1.3872108895423618e-05  1.3872108895441296e-05  1.3872108895474544e-05  1.3872108895537124e-05  1.3872108895655277e-05  1.3872108895878484e-05  1.3872108896299046e-05  1.3872108897087161e-05  1.3872108898551720e-05  1.3872108901243839e-05  1.3872108906127728e-05  1.3872108914852403e-05  1.3872108930165396e-05  1.3872108956507826e-05  1.3872109000805718e-05  1.3872109073405969e-05  1.3872109188973161e-05  1.3872109366952803e-05  1.3872109630958080e-05  1.3872110006288020e-05  1.3872110515008027e-05  1.3872111168940024e-05  1.3872111962504960e-05  1.3872112868656204e-05  1.3872113840120875e-05  1.3872114814104661e-05  1.3872115715993523e-05  1.3872116462136622e-05  1.3872116967320258e-05  1.3872117158457635e-05  1.3872116991570108e-05  1.3872116469926186e-05  1.3872115654933241e-05  1.3872114658195824e-05  1.3872113614511466e-05  1.3872112649738813e-05  1.3872111859034044e-05  1.3872111301922709e-05  1.3872111011369824e-05  1.3872111010187095e-05  1.3872111329195402e-05  1.3872112024585692e-05  1.3872113194626465e-05  1.3872114997397418e-05  1.3872117671622611e-05  1.3872121562172448e-05  1.3872127150457911e-05  1.3872135087531143e-05  1.3872146223862998e-05  1.3872161624392610e-05  1.3872182551518398e-05  1.3872210395408202e-05  1.3872246536210806e-05  1.3872292141560560e-05  1.3872347926108814e-05  1.3872413879458410e-05  1.3872488819775820e-05  1.3872569432002397e-05  1.3872649308107488e-05  1.3872721953798566e-05  1.3872792369583164e-05  1.3872887593062044e-05  1.3873035830284980e-05  1.3873198125202170e-05  2.0815686923745248e-05  2.7758542630922029e-05  2.7757905254172993e-05  2.7756770963684803e-05  2.7755666995386905e-05  2.7754901983522322e-05  2.0813407732774246e-05  1.3872243451733064e-05  1.3872220934692374e-05  1.3872200918407829e-05  1.3872182278643084e-05  1.3872165564086511e-05  1.3872150668889539e-05  1.3872138096540119e-05  1.3872128277821842e-05  1.3872121169588974e-05  1.3872116352204044e-05  1.3872113264168822e-05  1.3872111375258402e-05  1.3872110264723506e-05  1.3872109633486446e-05  1.3872109284923556e-05  1.3872109097195374e-05  1.3872108998252115e-05  1.3872108947075317e-05  1.3872108921036165e-05  1.3872108907976650e-05  1.3872108901509269e-05  1.3872108898342343e-05  1.3872108896807867e-05  1.3872108896073103e-05  1.3872108895729165e-05  1.3872108895580953e-05  2.7753816823910919e-05  2.7753816823677798e-05  1.3872108895418660e-05  1.3872108895427129e-05  1.3872108895444091e-05  1.3872108895476101e-05  1.3872108895535991e-05  1.3872108895648563e-05  1.3872108895861565e-05  1.3872108896266199e-05  1.3872108897035068e-05  1.3872108898491221e-05  1.3872108901230707e-05  1.3872108906335647e-05  1.3872108915734259e-05  1.3872108932789078e-05  1.3872108963219436e-05  1.3872109016474583e-05  1.3872109107637451e-05  1.3872109259804975e-05  1.3872109506584770e-05  1.3872109893806410e-05  1.3872110478810338e-05  1.3872111325057026e-05  1.3872112490059990e-05  1.3872114006937441e-05  1.3872115864716988e-05  1.3872117997425802e-05  1.3872120289691828e-05  1.3872122592219034e-05  1.3872124729659293e-05  1.3872126501329577e-05  1.3872127697544959e-05  1.3872128134741004e-05  1.3872127697622762e-05  1.3872126389858024e-05  1.3872124369246925e-05  1.3872121926305698e-05  1.3872119405310228e-05  1.3872117114408807e-05  1.3872115270893651e-05  1.3872113995296632e-05  1.3872113340932053e-05  1.3872113338120253e-05  1.3872114038479408e-05  1.3872115554184319e-05  1.3872118094129060e-05  1.3872122002266886e-05  1.3872127803922820e-05  1.3872136264568219e-05  1.3872148462609582e-05  1.3872165872451657e-05  1.3872190445100738e-05  1.3872224659815074e-05  1.3872271503092817e-05  1.3872334318149174e-05  1.3872416477212069e-05  1.3872520886285965e-05  1.3872649435657975e-05  1.3872802520235977e-05  1.3872978226568321e-05  1.3873169182293791e-05  1.3873356017905390e-05  1.3873509575028274e-05  1.3873622431490058e-05  1.3873725660310030e-05  2.0817073531282802e-05  2.7762169924226426e-05  4.1651264676939950e-05  5.7602823737167863e-01  5.7211384292313594e-01  5.5376407173341113e-01  5.3401371882597826e-01  5.1931236896521815e-01  5.1476295801145611e-01  4.1637113413538023e-05  2.0813515790754006e-05  1.3872307966693371e-05  1.3872270107933906e-05  1.3872233282118268e-05  1.3872199266361982e-05  1.3872170572640243e-05  1.3872148673873069e-05  1.3872133327115126e-05  1.3872123287497277e-05  1.3872117075770099e-05  1.3872113404500965e-05  1.3872111315962120e-05  1.3872110165418126e-05  1.3872109548675117e-05  1.3872109225697540e-05  1.3872109059914505e-05  1.3872108976276190e-05  1.3872108934706616e-05  1.3872108914312755e-05  1.3872108904420474e-05  1.3872108899669945e-05  1.3872108897409789e-05  1.3872108896345719e-05  1.3872108895855083e-05  1.3872108895646014e-05  2.7753816824005359e-05  2.7753816823711303e-05  1.3872108895436219e-05  1.3872108895451967e-05  1.3872108895483126e-05  1.3872108895541271e-05  1.3872108895649078e-05  1.3872108895850672e-05  1.3872108896231779e-05  1.3872108896958113e-05  1.3872108898347713e-05  1.3872108901004883e-05  1.3872108906063170e-05  1.3872108915617002e-05  1.3872108933468815e-05  1.3872108966382848e-05  1.3872109026111378e-05  1.3872109132516348e-05  1.3872109318081185e-05  1.3872109633863552e-05  1.3872110156269892e-05  1.3872110992691789e-05  1.3872112281959933e-05  1.3872114183323194e-05  1.3872116847251256e-05  1.3872120366617085e-05  1.3872124721206975e-05  1.3872129746961568e-05  1.3872135158506786e-05  1.3872140602514459e-05  1.3872145672788380e-05  1.3872149888823303e-05  1.3872152732481844e-05  1.3872153742065677e-05  1.3872152610715359e-05  1.3872149329893093e-05  1.3872144307420396e-05  1.3872138308751474e-05  1.3872132220246200e-05  1.3872126795749214e-05  1.3872122522994804e-05  1.3872119630836445e-05  1.3872118183047521e-05  1.3872118196387042e-05  1.3872119746881766e-05  1.3872123056485375e-05  1.3872128569362324e-05  1.3872137033325874e-05  1.3872149601813810e-05  1.3872167968420226e-05  1.3872194539899462e-05  1.3872232642533534e-05  1.3872286736546101e-05  1.3872362579087055e-05  1.3872467227508702e-05  1.3872608725743064e-05  1.3872795317501186e-05  1.3873034183109823e-05  1.3873330103067752e-05  1.3873684877424198e-05  1.3874097159021827e-05  1.3874554086941130e-05  1.3874999139074212e-05  1.3875310313738891e-05  1.3875366341847471e-05  2.0820127244378507e-05  4.1657830682823442e-05  6.1101487501654095e-01  6.1482987029661851e-01  4.9999993016289251e-01  4.9999993004696425e-01  4.9999992995771964e-01  4.9999992985337893e-01  4.9999992964521911e-01  4.9999992947997091e-01  5.1262100855146364e-01  5.2198102475092190e-01  2.7755398622920118e-05  1.3872457358326208e-05  1.3872381956364915e-05  1.3872303756896152e-05  1.3872237867849521e-05  1.3872189257921089e-05  1.3872156562852057e-05  1.3872136035762708e-05  1.3872123825051978e-05  1.3872116871662633e-05  1.3872113052087484e-05  1.3872111016051184e-05  1.3872109957807076e-05  1.3872109419399248e-05  1.3872109150395470e-05  1.3872109018057618e-05  1.3872108953810785e-05  1.3872108922974358e-05  1.3872108908319136e-05  1.3872108901414037e-05  1.3872108898186447e-05  1.3872108896691513e-05  1.3872108896012105e-05  1.3872108895725667e-05  2.7753816824120566e-05  2.7753816823777989e-05  1.3872108895471012e-05  1.3872108895500648e-05  1.3872108895558463e-05  1.3872108895664737e-05  1.3872108895859146e-05  1.3872108896219155e-05  1.3872108896896429e-05  1.3872108898187390e-05  1.3872108900668612e-05  1.3872108905452275e-05  1.3872108914659339e-05  1.3872108932278830e-05  1.3872108965691683e-05  1.3872109028297457e-05  1.3872109143889426e-05  1.3872109353632554e-05  1.3872109726575106e-05  1.3872110374265094e-05  1.3872111468689014e-05  1.3872113259595315e-05  1.38721160816