<?xml version="1.0"?>
<VTKFile type="UnstructuredGrid"  version="0.1"  >
<UnstructuredGrid>
<Piece  NumberOfPoints="5151" NumberOfCells="10000">
<Points>
<DataArray  type="Float64"  NumberOfComponents="3"  format="ascii">0 0 0  0.02 0 0  0.04 0 0  0.06 0 0  0.08 0 0  0.1 0 0  0.12 0 0  0.14 0 0  0.16 0 0  0.18 0 0  0.2 0 0  0.22 0 0  0.24 0 0  0.26 0 0  0.28 0 0  0.3 0 0  0.32 0 0  0.34 0 0  0.36 0 0  0.38 0 0  0.4 0 0  0.42 0 0  0.44 0 0  0.46 0 0  0.48 0 0  0.5 0 0  0.52 0 0  0.54 0 0  0.5600000000000001 0 0  0.58 0 0  0.6 0 0  0.62 0 0  0.64 0 0  0.66 0 0  0.68 0 0  0.7 0 0  0.72 0 0  0.74 0 0  0.76 0 0  0.78 0 0  0.8 0 0  0.82 0 0  0.84 0 0  0.86 0 0  0.88 0 0  0.9 0 0  0.92 0 0  0.9399999999999999 0 0  0.96 0 0  0.98 0 0  1 0 0  1.02 0 0  1.04 0 0  1.06 0 0  1.08 0 0  1.1 0 0  1.12 0 0  1.14 0 0  1.16 0 0  1.18 0 0  1.2 0 0  1.22 0 0  1.24 0 0  1.26 0 0  1.28 0 0  1.3 0 0  1.32 0 0  1.34 0 0  1.36 0 0  1.38 0 0  1.4 0 0  1.42 0 0  1.44 0 0  1.46 0 0  1.48 0 0  1.5 0 0  1.52 0 0  1.54 0 0  1.56 0 0  1.58 0 0  1.6 0 0  1.62 0 0  1.64 0 0  1.66 0 0  1.68 0 0  1.7 0 0  1.72 0 0  1.74 0 0  1.76 0 0  1.78 0 0  1.8 0 0  1.82 0 0  1.84 0 0  1.86 0 0  1.88 0 0  1.9 0 0  1.92 0 0  1.94 0 0  1.96 0 0  1.98 0 0  2 0 0  0 0.02 0  0.02 0.02 0  0.04 0.02 0  0.06 0.02 0  0.08 0.02 0  0.1 0.02 0  0.12 0.02 0  0.14 0.02 0  0.16 0.02 0  0.18 0.02 0  0.2 0.02 0  0.22 0.02 0  0.24 0.02 0  0.26 0.02 0  0.28 0.02 0  0.3 0.02 0  0.32 0.02 0  0.34 0.02 0  0.36 0.02 0  0.38 0.02 0  0.4 0.02 0  0.42 0.02 0  0.44 0.02 0  0.46 0.02 0  0.48 0.02 0  0.5 0.02 0  0.52 0.02 0  0.54 0.02 0  0.5600000000000001 0.02 0  0.58 0.02 0  0.6 0.02 0  0.62 0.02 0  0.64 0.02 0  0.66 0.02 0  0.68 0.02 0  0.7 0.02 0  0.72 0.02 0  0.74 0.02 0  0.76 0.02 0  0.78 0.02 0  0.8 0.02 0  0.82 0.02 0  0.84 0.02 0  0.86 0.02 0  0.88 0.02 0  0.9 0.02 0  0.92 0.02 0  0.9399999999999999 0.02 0  0.96 0.02 0  0.98 0.02 0  1 0.02 0  1.02 0.02 0  1.04 0.02 0  1.06 0.02 0  1.08 0.02 0  1.1 0.02 0  1.12 0.02 0  1.14 0.02 0  1.16 0.02 0  1.18 0.02 0  1.2 0.02 0  1.22 0.02 0  1.24 0.02 0  1.26 0.02 0  1.28 0.02 0  1.3 0.02 0  1.32 0.02 0  1.34 0.02 0  1.36 0.02 0  1.38 0.02 0  1.4 0.02 0  1.42 0.02 0  1.44 0.02 0  1.46 0.02 0  1.48 0.02 0  1.5 0.02 0  1.52 0.02 0  1.54 0.02 0  1.56 0.02 0  1.58 0.02 0  1.6 0.02 0  1.62 0.02 0  1.64 0.02 0  1.66 0.02 0  1.68 0.02 0  1.7 0.02 0  1.72 0.02 0  1.74 0.02 0  1.76 0.02 0  1.78 0.02 0  1.8 0.02 0  1.82 0.02 0  1.84 0.02 0  1.86 0.02 0  1.88 0.02 0  1.9 0.02 0  1.92 0.02 0  1.94 0.02 0  1.96 0.02 0  1.98 0.02 0  2 0.02 0  0 0.04 0  0.02 0.04 0  0.04 0.04 0  0.06 0.04 0  0.08 0.04 0  0.1 0.04 0  0.12 0.04 0  0.14 0.04 0  0.16 0.04 0  0.18 0.04 0  0.2 0.04 0  0.22 0.04 0  0.24 0.04 0  0.26 0.04 0  0.28 0.04 0  0.3 0.04 0  0.32 0.04 0  0.34 0.04 0  0.36 0.04 0  0.38 0.04 0  0.4 0.04 0  0.42 0.04 0  0.44 0.04 0  0.46 0.04 0  0.48 0.04 0  0.5 0.04 0  0.52 0.04 0  0.54 0.04 0  0.5600000000000001 0.04 0  0.58 0.04 0  0.6 0.04 0  0.62 0.04 0  0.64 0.04 0  0.66 0.04 0  0.68 0.04 0  0.7 0.04 0  0.72 0.04 0  0.74 0.04 0  0.76 0.04 0  0.78 0.04 0  0.8 0.04 0  0.82 0.04 0  0.84 0.04 0  0.86 0.04 0  0.88 0.04 0  0.9 0.04 0  0.92 0.04 0  0.9399999999999999 0.04 0  0.96 0.04 0  0.98 0.04 0  1 0.04 0  1.02 0.04 0  1.04 0.04 0  1.06 0.04 0  1.08 0.04 0  1.1 0.04 0  1.12 0.04 0  1.14 0.04 0  1.16 0.04 0  1.18 0.04 0  1.2 0.04 0  1.22 0.04 0  1.24 0.04 0  1.26 0.04 0  1.28 0.04 0  1.3 0.04 0  1.32 0.04 0  1.34 0.04 0  1.36 0.04 0  1.38 0.04 0  1.4 0.04 0  1.42 0.04 0  1.44 0.04 0  1.46 0.04 0  1.48 0.04 0  1.5 0.04 0  1.52 0.04 0  1.54 0.04 0  1.56 0.04 0  1.58 0.04 0  1.6 0.04 0  1.62 0.04 0  1.64 0.04 0  1.66 0.04 0  1.68 0.04 0  1.7 0.04 0  1.72 0.04 0  1.74 0.04 0  1.76 0.04 0  1.78 0.04 0  1.8 0.04 0  1.82 0.04 0  1.84 0.04 0  1.86 0.04 0  1.88 0.04 0  1.9 0.04 0  1.92 0.04 0  1.94 0.04 0  1.96 0.04 0  1.98 0.04 0  2 0.04 0  0 0.06 0  0.02 0.06 0  0.04 0.06 0  0.06 0.06 0  0.08 0.06 0  0.1 0.06 0  0.12 0.06 0  0.14 0.06 0  0.16 0.06 0  0.18 0.06 0  0.2 0.06 0  0.22 0.06 0  0.24 0.06 0  0.26 0.06 0  0.28 0.06 0  0.3 0.06 0  0.32 0.06 0  0.34 0.06 0  0.36 0.06 0  0.38 0.06 0  0.4 0.06 0  0.42 0.06 0  0.44 0.06 0  0.46 0.06 0  0.48 0.06 0  0.5 0.06 0  0.52 0.06 0  0.54 0.06 0  0.5600000000000001 0.06 0  0.58 0.06 0  0.6 0.06 0  0.62 0.06 0  0.64 0.06 0  0.66 0.06 0  0.68 0.06 0  0.7 0.06 0  0.72 0.06 0  0.74 0.06 0  0.76 0.06 0  0.78 0.06 0  0.8 0.06 0  0.82 0.06 0  0.84 0.06 0  0.86 0.06 0  0.88 0.06 0  0.9 0.06 0  0.92 0.06 0  0.9399999999999999 0.06 0  0.96 0.06 0  0.98 0.06 0  1 0.06 0  1.02 0.06 0  1.04 0.06 0  1.06 0.06 0  1.08 0.06 0  1.1 0.06 0  1.12 0.06 0  1.14 0.06 0  1.16 0.06 0  1.18 0.06 0  1.2 0.06 0  1.22 0.06 0  1.24 0.06 0  1.26 0.06 0  1.28 0.06 0  1.3 0.06 0  1.32 0.06 0  1.34 0.06 0  1.36 0.06 0  1.38 0.06 0  1.4 0.06 0  1.42 0.06 0  1.44 0.06 0  1.46 0.06 0  1.48 0.06 0  1.5 0.06 0  1.52 0.06 0  1.54 0.06 0  1.56 0.06 0  1.58 0.06 0  1.6 0.06 0  1.62 0.06 0  1.64 0.06 0  1.66 0.06 0  1.68 0.06 0  1.7 0.06 0  1.72 0.06 0  1.74 0.06 0  1.76 0.06 0  1.78 0.06 0  1.8 0.06 0  1.82 0.06 0  1.84 0.06 0  1.86 0.06 0  1.88 0.06 0  1.9 0.06 0  1.92 0.06 0  1.94 0.06 0  1.96 0.06 0  1.98 0.06 0  2 0.06 0  0 0.08 0  0.02 0.08 0  0.04 0.08 0  0.06 0.08 0  0.08 0.08 0  0.1 0.08 0  0.12 0.08 0  0.14 0.08 0  0.16 0.08 0  0.18 0.08 0  0.2 0.08 0  0.22 0.08 0  0.24 0.08 0  0.26 0.08 0  0.28 0.08 0  0.3 0.08 0  0.32 0.08 0  0.34 0.08 0  0.36 0.08 0  0.38 0.08 0  0.4 0.08 0  0.42 0.08 0  0.44 0.08 0  0.46 0.08 0  0.48 0.08 0  0.5 0.08 0  0.52 0.08 0  0.54 0.08 0  0.5600000000000001 0.08 0  0.58 0.08 0  0.6 0.08 0  0.62 0.08 0  0.64 0.08 0  0.66 0.08 0  0.68 0.08 0  0.7 0.08 0  0.72 0.08 0  0.74 0.08 0  0.76 0.08 0  0.78 0.08 0  0.8 0.08 0  0.82 0.08 0  0.84 0.08 0  0.86 0.08 0  0.88 0.08 0  0.9 0.08 0  0.92 0.08 0  0.9399999999999999 0.08 0  0.96 0.08 0  0.98 0.08 0  1 0.08 0  1.02 0.08 0  1.04 0.08 0  1.06 0.08 0  1.08 0.08 0  1.1 0.08 0  1.12 0.08 0  1.14 0.08 0  1.16 0.08 0  1.18 0.08 0  1.2 0.08 0  1.22 0.08 0  1.24 0.08 0  1.26 0.08 0  1.28 0.08 0  1.3 0.08 0  1.32 0.08 0  1.34 0.08 0  1.36 0.08 0  1.38 0.08 0  1.4 0.08 0  1.42 0.08 0  1.44 0.08 0  1.46 0.08 0  1.48 0.08 0  1.5 0.08 0  1.52 0.08 0  1.54 0.08 0  1.56 0.08 0  1.58 0.08 0  1.6 0.08 0  1.62 0.08 0  1.64 0.08 0  1.66 0.08 0  1.68 0.08 0  1.7 0.08 0  1.72 0.08 0  1.74 0.08 0  1.76 0.08 0  1.78 0.08 0  1.8 0.08 0  1.82 0.08 0  1.84 0.08 0  1.86 0.08 0  1.88 0.08 0  1.9 0.08 0  1.92 0.08 0  1.94 0.08 0  1.96 0.08 0  1.98 0.08 0  2 0.08 0  0 0.1 0  0.02 0.1 0  0.04 0.1 0  0.06 0.1 0  0.08 0.1 0  0.1 0.1 0  0.12 0.1 0  0.14 0.1 0  0.16 0.1 0  0.18 0.1 0  0.2 0.1 0  0.22 0.1 0  0.24 0.1 0  0.26 0.1 0  0.28 0.1 0  0.3 0.1 0  0.32 0.1 0  0.34 0.1 0  0.36 0.1 0  0.38 0.1 0  0.4 0.1 0  0.42 0.1 0  0.44 0.1 0  0.46 0.1 0  0.48 0.1 0  0.5 0.1 0  0.52 0.1 0  0.54 0.1 0  0.5600000000000001 0.1 0  0.58 0.1 0  0.6 0.1 0  0.62 0.1 0  0.64 0.1 0  0.66 0.1 0  0.68 0.1 0  0.7 0.1 0  0.72 0.1 0  0.74 0.1 0  0.76 0.1 0  0.78 0.1 0  0.8 0.1 0  0.82 0.1 0  0.84 0.1 0  0.86 0.1 0  0.88 0.1 0  0.9 0.1 0  0.92 0.1 0  0.9399999999999999 0.1 0  0.96 0.1 0  0.98 0.1 0  1 0.1 0  1.02 0.1 0  1.04 0.1 0  1.06 0.1 0  1.08 0.1 0  1.1 0.1 0  1.12 0.1 0  1.14 0.1 0  1.16 0.1 0  1.18 0.1 0  1.2 0.1 0  1.22 0.1 0  1.24 0.1 0  1.26 0.1 0  1.28 0.1 0  1.3 0.1 0  1.32 0.1 0  1.34 0.1 0  1.36 0.1 0  1.38 0.1 0  1.4 0.1 0  1.42 0.1 0  1.44 0.1 0  1.46 0.1 0  1.48 0.1 0  1.5 0.1 0  1.52 0.1 0  1.54 0.1 0  1.56 0.1 0  1.58 0.1 0  1.6 0.1 0  1.62 0.1 0  1.64 0.1 0  1.66 0.1 0  1.68 0.1 0  1.7 0.1 0  1.72 0.1 0  1.74 0.1 0  1.76 0.1 0  1.78 0.1 0  1.8 0.1 0  1.82 0.1 0  1.84 0.1 0  1.86 0.1 0  1.88 0.1 0  1.9 0.1 0  1.92 0.1 0  1.94 0.1 0  1.96 0.1 0  1.98 0.1 0  2 0.1 0  0 0.12 0  0.02 0.12 0  0.04 0.12 0  0.06 0.12 0  0.08 0.12 0  0.1 0.12 0  0.12 0.12 0  0.14 0.12 0  0.16 0.12 0  0.18 0.12 0  0.2 0.12 0  0.22 0.12 0  0.24 0.12 0  0.26 0.12 0  0.28 0.12 0  0.3 0.12 0  0.32 0.12 0  0.34 0.12 0  0.36 0.12 0  0.38 0.12 0  0.4 0.12 0  0.42 0.12 0  0.44 0.12 0  0.46 0.12 0  0.48 0.12 0  0.5 0.12 0  0.52 0.12 0  0.54 0.12 0  0.5600000000000001 0.12 0  0.58 0.12 0  0.6 0.12 0  0.62 0.12 0  0.64 0.12 0  0.66 0.12 0  0.68 0.12 0  0.7 0.12 0  0.72 0.12 0  0.74 0.12 0  0.76 0.12 0  0.78 0.12 0  0.8 0.12 0  0.82 0.12 0  0.84 0.12 0  0.86 0.12 0  0.88 0.12 0  0.9 0.12 0  0.92 0.12 0  0.9399999999999999 0.12 0  0.96 0.12 0  0.98 0.12 0  1 0.12 0  1.02 0.12 0  1.04 0.12 0  1.06 0.12 0  1.08 0.12 0  1.1 0.12 0  1.12 0.12 0  1.14 0.12 0  1.16 0.12 0  1.18 0.12 0  1.2 0.12 0  1.22 0.12 0  1.24 0.12 0  1.26 0.12 0  1.28 0.12 0  1.3 0.12 0  1.32 0.12 0  1.34 0.12 0  1.36 0.12 0  1.38 0.12 0  1.4 0.12 0  1.42 0.12 0  1.44 0.12 0  1.46 0.12 0  1.48 0.12 0  1.5 0.12 0  1.52 0.12 0  1.54 0.12 0  1.56 0.12 0  1.58 0.12 0  1.6 0.12 0  1.62 0.12 0  1.64 0.12 0  1.66 0.12 0  1.68 0.12 0  1.7 0.12 0  1.72 0.12 0  1.74 0.12 0  1.76 0.12 0  1.78 0.12 0  1.8 0.12 0  1.82 0.12 0  1.84 0.12 0  1.86 0.12 0  1.88 0.12 0  1.9 0.12 0  1.92 0.12 0  1.94 0.12 0  1.96 0.12 0  1.98 0.12 0  2 0.12 0  0 0.14 0  0.02 0.14 0  0.04 0.14 0  0.06 0.14 0  0.08 0.14 0  0.1 0.14 0  0.12 0.14 0  0.14 0.14 0  0.16 0.14 0  0.18 0.14 0  0.2 0.14 0  0.22 0.14 0  0.24 0.14 0  0.26 0.14 0  0.28 0.14 0  0.3 0.14 0  0.32 0.14 0  0.34 0.14 0  0.36 0.14 0  0.38 0.14 0  0.4 0.14 0  0.42 0.14 0  0.44 0.14 0  0.46 0.14 0  0.48 0.14 0  0.5 0.14 0  0.52 0.14 0  0.54 0.14 0  0.5600000000000001 0.14 0  0.58 0.14 0  0.6 0.14 0  0.62 0.14 0  0.64 0.14 0  0.66 0.14 0  0.68 0.14 0  0.7 0.14 0  0.72 0.14 0  0.74 0.14 0  0.76 0.14 0  0.78 0.14 0  0.8 0.14 0  0.82 0.14 0  0.84 0.14 0  0.86 0.14 0  0.88 0.14 0  0.9 0.14 0  0.92 0.14 0  0.9399999999999999 0.14 0  0.96 0.14 0  0.98 0.14 0  1 0.14 0  1.02 0.14 0  1.04 0.14 0  1.06 0.14 0  1.08 0.14 0  1.1 0.14 0  1.12 0.14 0  1.14 0.14 0  1.16 0.14 0  1.18 0.14 0  1.2 0.14 0  1.22 0.14 0  1.24 0.14 0  1.26 0.14 0  1.28 0.14 0  1.3 0.14 0  1.32 0.14 0  1.34 0.14 0  1.36 0.14 0  1.38 0.14 0  1.4 0.14 0  1.42 0.14 0  1.44 0.14 0  1.46 0.14 0  1.48 0.14 0  1
[...]
<PointData  Scalars="sols[i]"> 
<DataArray  type="Float64"  Name="sols[i]"  format="ascii">5.1802744900386488e-01  5.1300102055993591e-01  5.1300224544577044e-01  5.1300434911570236e-01  5.1300757369368521e-01  5.1301223551752717e-01  5.1301868775083892e-01  5.1302726859138736e-01  5.1303825574919970e-01  5.1305182910799174e-01  5.1306803912810561e-01  5.1308677946019410e-01  5.1310776369549171e-01  5.1313050739896360e-01  5.1315431773134368e-01  5.1317829424167205e-01  5.1320134586139288e-01  5.1322223073446338e-01  5.1323962719455807e-01  5.1325224579113216e-01  5.1325899348500670e-01  5.1325920149556703e-01  5.1325292700712510e-01  5.1324133486232904e-01  5.1322715687265974e-01  5.1321521148445370e-01  5.1321294329259459e-01  5.1323090921058578e-01  5.1328309728227706e-01  5.1338692085750059e-01  5.1356269714321356e-01  5.1383241361454379e-01  5.1421763065940573e-01  5.1473648246197401e-01  5.1539992431778336e-01  5.1620761303294316e-01  5.1714404830893290e-01  5.1817576813132959e-01  5.1925039062505374e-01  5.2029812463616865e-01  5.2123632087146810e-01  5.2197781329387982e-01  5.2244277416304974e-01  5.2257241778190389e-01  5.2234565623829976e-01  5.2179923445641319e-01  5.2104078132440412e-01  5.2023492058323761e-01  5.1956252774250389e-01  5.1917364609365801e-01  5.1915254978411585e-01  5.1949474699716658e-01  5.2010693724059809e-01  5.2083432191258294e-01  5.2150250437788015e-01  5.2195742713944404e-01  5.2209605897404343e-01  5.2187790395705447e-01  5.2131879116878921e-01  5.2047732100486888e-01  5.1944215831977791e-01  5.1832057190980196e-01  5.1722469048772024e-01  5.1625501624141856e-01  5.1548523021166248e-01  5.1495312852563435e-01  5.1465988898681436e-01  5.1457661121209441e-01  5.1465507760353302e-01  5.1483929427552400e-01  5.1507515828322692e-01  5.1531690261688889e-01  5.1553019652835497e-01  5.1569257067132956e-01  5.1579212944582264e-01  5.1582544093363913e-01  5.1579524992785708e-01  5.1570839260862067e-01  5.1557408078341382e-01  5.1540258904244918e-01  5.1520430798125483e-01  5.1498909954016003e-01  5.1476588737116624e-01  5.1454242279555484e-01  5.1432517783622811e-01  5.1411932743108124e-01  5.1392879198660657e-01  5.1375631876178440e-01  5.1360358646356663e-01  5.1347132226147219e-01  5.1335942450895433e-01  5.1326708798092235e-01  5.1319293138766309e-01  5.1313512901129699e-01  5.1309154897716824e-01  5.1305989956444675e-01  5.1303788332846034e-01  5.1302336104771173e-01  5.1301453420255672e-01  5.1301011791844975e-01  5.2373534784170683e-01  5.1300101451325397e-01  4.6299026433045964e-01  4.6299291796983805e-01  4.6299747238806604e-01  4.6300425957915869e-01  4.6301373152920067e-01  4.6302641735271838e-01  4.6304283866040535e-01  4.6306342837335707e-01  4.6308846167669848e-01  4.6311799670790943e-01  4.6315182364915114e-01  4.6318942297724941e-01  4.6322993537872281e-01  4.6327214769914432e-01  4.6331450150963288e-01  4.6335513342470536e-01  4.6339195906306163e-01  4.6342281526906737e-01  4.6344567756080290e-01  4.6345897115736334e-01  4.6346199348674244e-01  4.6345546246229269e-01  4.6344219620547966e-01  4.6342791392582799e-01  4.6342212169689884e-01  4.6343900857368453e-01  4.6349822710868588e-01  4.6362537039819018e-01  4.6385189327967591e-01  4.6421417311250912e-01  4.6475138781567971e-01  4.6550193365795772e-01  4.6649824516091987e-01  4.6776014734683991e-01  4.6928728413076098e-01  4.7105168446266388e-01  4.7299198716696556e-01  4.7501097976425843e-01  4.7697783581404501e-01  4.7873647665323366e-01  4.8012210274325540e-01  4.8098483117264590e-01  4.8121403778525618e-01  4.8076389075764758e-01  4.7968443619540424e-01  4.7815129827547787e-01  4.7646723339581520e-01  4.7500592652809859e-01  4.7411484873573756e-01  4.7402290131576225e-01  4.7477165997709386e-01  4.7619340035541197e-01  4.7796204392721409e-01  4.7969960926463395e-01  4.8107322617984671e-01  4.8185432433335790e-01  4.8192822235346400e-01  4.8127845797209012e-01  4.7997017592406632e-01  4.7813795612072429e-01  4.7597154633563926e-01  4.7369206757006654e-01  4.7151881197900264e-01  4.6963413828654621e-01  4.6815709978051706e-01  4.6713362331903419e-01  4.6654385017483629e-01  4.6632071049765550e-01  4.6637182884863737e-01  4.6659886248197058e-01  4.6691148699735191e-01  4.6723559445939611e-01  4.6751655687595073e-01  4.6771893140934828e-01  4.6782402333450829e-01  4.6782648005368410e-01  4.6773073384403274e-01  4.6754776988173580e-01  4.6729243568868112e-01  4.6698134119605927e-01  4.6663130816425591e-01  4.6625828854756896e-01  4.6587666175997472e-01  4.6549882580752561e-01  4.6513500824997545e-01  4.6479323554134566e-01  4.6447941155521777e-01  4.6419746734844913e-01  4.6394955432609969e-01  4.6373626200687007e-01  4.6355684956988047e-01  4.6340948707799723e-01  4.6329150692471233e-01  4.6319966694144882e-01  4.6313042132168308e-01  4.6308018376568355e-01  4.6304556101256639e-01  4.6302357736558952e-01  4.6301188688576966e-01  5.1301008332216336e-01  5.1300221918930111e-01  4.6299287467736649e-01  4.6299633570323850e-01  4.6300194253563909e-01  4.6300975715197845e-01  4.6301983760816195e-01  4.6303225546049076e-01  4.6304709292950263e-01  4.6306441027769119e-01  4.6308420097350633e-01  4.6310634778841919e-01  4.6313058690645742e-01  4.6315648396120601e-01  4.6318342511084210e-01  4.6321062685281056e-01  4.6323716955281447e-01  4.6326206115796220e-01  4.6328433896051774e-01  4.6330321827792281e-01  4.6331829715427791e-01  4.6332982516076715e-01  4.6333904136547477e-01  4.6334858059614725e-01  4.6336293702947740e-01  4.6338895857075968e-01  4.6343632330451062e-01  4.6351792022341642e-01  4.6365002219258711e-01  4.6385210491514067e-01  4.6414614189180958e-01  4.6455520822826007e-01  4.6510127599091422e-01  4.6580219906146830e-01  4.6666807082559264e-01  4.6769736849870031e-01  4.6887350460565802e-01  4.7016247904999542e-01  4.7151215568875982e-01  4.7285328894597439e-01  4.7410221847553496e-01  4.7516645289959347e-01  4.7595601045924313e-01  4.7639614884746639e-01  4.7643109405123013e-01  4.7602906038298193e-01  4.7520349596156569e-01  4.7404494806246728e-01  4.7274380327172433e-01  4.7157362353959636e-01  4.7082545011180332e-01  4.7071585058258286e-01  4.7130584068873232e-01  4.7246804627943523e-01  4.7392361264781846e-01  4.7535191737610438e-01  4.7649878876978213e-01  4.7723703421610580e-01  4.7753934605165543e-01  4.7741903678386877e-01  4.7690013652084129e-01  4.7602026756474125e-01  4.7484426277482300e-01  4.7346881735424690e-01  4.7201303076123680e-01  4.7059930815107048e-01  4.6933251258013736e-01  4.6828450076602790e-01  4.6748789630814025e-01  4.6693899495321528e-01  4.6660684958260623e-01  4.6644467580531168e-01  4.6640041306472491e-01  4.6642466989060827e-01  4.6647559144978201e-01  4.6652103502143494e-01  4.6653879720533176e-01  4.6651565244476867e-01  4.6644580977973177e-01  4.6632920114811088e-01  4.6616984676324413e-01  4.6597442231058783e-01  4.6575107587824915e-01  4.6550849824361740e-01  4.6525522696721267e-01  4.6499915420369564e-01  4.6474720479074327e-01  4.6450515184783914e-01  4.6427754003215493e-01  4.6406769077342591e-01  4.6387776865856439e-01  4.6370889324321840e-01  4.6356128548159448e-01  4.6343444193909206e-01  4.6332733157943767e-01  4.6323860680360818e-01  4.6316680964884283e-01  4.6311053590160278e-01  4.6306851297102863e-01  4.6303964286183208e-01  4.6302319597541758e-01  5.1301434246229838e-01  5.1300427637091151e-01  4.6299732659774429e-01  4.6300183807739936e-01  4.6300870533719263e-01  4.6301775429531666e-01  4.6302876548388672e-01  4.6304146856467943e-01  4.6305558628437488e-01  4.6307085242302398e-01  4.6308700208152304e-01  4.6310375146904892e-01  4.6312078079435648e-01  4.6313772857545593e-01  4.6315420261775520e-01  4.6316981182102612e-01  4.6318422295676337e-01  4.6319724687296238e-01  4.6320895869287970e-01  4.6321985606341176e-01  4.6323105795319636e-01  4.6324454342736049e-01  4.6326342465037129e-01  4.6329224041969019e-01  4.6333724513408714e-01  4.6340665278063409e-01  4.6351077646554950e-01  4.6366198277294479e-01  4.6387436082840627e-01  4.6416299603262207e-01  4.6454275012020352e-01  4.6502649815839758e-01  4.6562287420610293e-01  4.6633373490255886e-01  4.6715174229787571e-01  4.6805862792419728e-01  4.6902471161685433e-01  4.7000996468241402e-01  4.7096624649259788e-01  4.7183953780760024e-01  4.7257116603840776e-01  4.7310125389287011e-01  4.7338232894191890e-01  4.7339298924572115e-01  4.7312720486979293e-01  4.7258083428284686e-01  4.7176442778860139e-01  4.7074114299586944e-01  4.6964907842411951e-01  4.6867814416760889e-01  4.6804093575773009e-01  4.6790832568358232e-01  4.6835082300182634e-01  4.6932188033152455e-01  4.7065606476536981e-01  4.7210833222372944e-01  4.7342780791116074e-01  4.7446762201657683e-01  4.7521029881839477e-01  4.7567726111123909e-01  4.7586293899120080e-01  4.7574014391143954e-01  4.7529307047112795e-01  4.7453955055873487e-01  4.7353635104434849e-01  4.7237096659835964e-01  4.7114498396915871e-01  4.6995516674547588e-01  4.6887815746853956e-01  4.6796234918186586e-01  4.6722729076398095e-01  4.6666859220057016e-01  4.6626543017366673e-01  4.6598816913902852e-01  4.6580460554775682e-01  4.6568430234191954e-01  4.6560111571018625e-01  4.6553430625637743e-01  4.6546867946170084e-01  4.6539413593791817e-01  4.6530491355398712e-01  4.6519871242406935e-01  4.6507582335217784e-01  4.6493833049409561e-01  4.6478942524035832e-01  4.6463284604213867e-01  4.6447244459534698e-01  4.6431187009660468e-01  4.6415435858821125e-01  4.6400261257637671e-01  4.6385875623468753e-01  4.6372435274860813e-01  4.6360047179139691e-01  4.6348779558293363e-01  4.6338675007579311e-01  4.6329764238848259e-01  4.6322077729375682e-01  4.6315651957753856e-01  4.6310528236346005e-01  4.6306754711756920e-01  4.6304429130903885e-01  5.1302280254661781e-01  5.1300740972945702e-01  4.6300391450008294e-01  4.6300945943190397e-01  4.6301757174317082e-01  4.6302781974208351e-01  4.6303978882405861e-01  4.6305300869210103e-01  4.6306698463852963e-01  4.6308123682035496e-01  4.6309532026640293e-01  4.6310883138312120e-01  4.6312141273555912e-01  4.6313276632502814e-01  4.6314268282160481e-01  4.6315109218811795e-01  4.6315813995076066e-01  4.6316429255164920e-01  4.6317047420537644e-01  4.6317823596309698e-01  4.6318995478271108e-01  4.6320905581849975e-01  4.6324024437278422e-01  4.6328972451656453e-01  4.6336536899166036e-01  4.6347678983351215e-01  4.6363524240504528e-01  4.6385328021573369e-01  4.6414406985204526e-01  4.6452028407508039e-01  4.6499252978661787e-01  4.6556735043774766e-01  4.6624497835654066e-01  4.6701719205024478e-01  4.6786581109544628e-01  4.6876243577824533e-01  4.6966984603723305e-01  4.7054481387674107e-01  4.7134084167864831e-01  4.7200794434390203e-01  4.7248753296316209e-01  4.7271186376614549e-01  4.7263145946401036e-01  4.7224907223471696e-01  4.7160219274750953e-01  4.7073520143212128e-01  4.6969770051649212e-01  4.6858417902916416e-01  4.6754032576159316e-01  5.0916357230207687e-01  5.1623474030312855e-01  5.1607879642354182e-01  5.1634238258959786e-01  5.0949835360958839e-01  4.6839349827525795e-01  4.7005589364185957e-01  4.7192864343898844e-01  4.7371804740998114e-01  4.7521903980353480e-01  4.7636269030205480e-01  4.7711873135741972e-01  4.7745477535495290e-01  4.7735534150240311e-01  4.7683387862417559e-01  4.7593780588566104e-01  4.7474855075682471e-01  4.7337301119255537e-01  4.7192724163656247e-01  4.7051814044650497e-01  4.6922928384777146e-01  4.6811412365495708e-01  4.6719637285651983e-01  4.6647529578210639e-01  4.6593312104672968e-01  4.6554237571274210e-01  4.6527189022750609e-01  4.6509105602482315e-01  4.6497244171702212e-01  4.6489310722757693e-01  4.6483499776080589e-01  4.6478474920167007e-01  4.6473315802064408e-01  4.6467449400645472e-01  4.6460577418241678e-01  4.6452607193118728e-01  4.6443590397575468e-01  4.6433671627871204e-01  4.6423047550574664e-01  4.6411936348271698e-01  4.6400556655835418e-01  4.6389114873172310e-01  4.6377799567114353e-01  4.6366781520478961e-01  4.6356217750288198e-01  4.6346257473569463e-01  4.6337047740123738e-01  4.6328736872851983e-01  4.6321475780856913e-01  4.6315420442172600e-01  4.6310746538749992e-01  4.6307705908300617e-01  5.1303656414553322e-01  5.1301191204494101e-01  4.6301304736204207e-01  4.6301924181504356e-01  4.6302833250667064e-01  4.6303957565363468e-01  4.6305234479167756e-01  4.6306603563885290e-01  4.6308004196401387e-01  4.6309377450337247e-01  4.6310669061903542e-01  4.6311832192834756e-01  4.6312830092789464e-01  4.6313639384424454e-01  4.6314254761584783e-01  4.6314695753925161e-01  4.6315016043337714e-01  4.6315315651117978e-01  4.6315756121911578e-01  4.6316578563657579e-01  4.6318124010707540e-01  4.6320855009224171e-01  4.6325376532630652e-01  4.6332453285536612e-01  4.6343019144693931e-01  4.6358172981890505e-01  4.6379153612639185e-01  4.6407285526252118e-01  4.6443887093812208e-01  4.6490135199379734e-01  4.6546886059225762e-01  4.6614462665762257e-01  4.6692435169821156e-01  4.6779439545230656e-01  4.6873095532085485e-01  4.6970083798834134e-01  4.7066402480005731e-01  4.7157714071415241e-01  4.7239485395743780e-01  4.7306352166818477e-01  4.7350234195562269e-01  4.7359285505828347e-01  4.7323660037239168e-01  4.7244253772452194e-01  4.7130520300607964e-01  4.6996011134926385e-01  4.6855529671743457e-01  5.0978331366194107e-01  5.1634081413553279e-01  5.2047522795005552e-01  5.2905990808318215e-01  5.2897065663251408e-01  5.2922692711608743e-01  5.2988374079638212e-01  5.2193896506408854e-01  5.1134407972768392e-01  4.7136480391602731e-01  4.7421446878563156e-01  4.7688344788932718e-01  4.7895246891985688e-01  4.8025478252026793e-01  4.8080917989051858e-01  4.8071533898927338e-01  4.8007673331609219e-01  4.7898654769481419e-01  4.7754336657257213e-01  4.7586235905495727e-01  4.7407051024213187e-01  4.7229129162793537e-01  4.7062838099644105e-01  4.6915508359975633e-01  4.6791149210936944e-01  4.6690803127186686e-01  4.6613260771645221e-01  4.6555869781077897e-01  4.6515256969080016e-01  4.6487879678941990e-01  4.6470393424369560e-01  4.6459861963321414e-01  4.6453849525252183e-01  4.6450433727349411e-01  4.6448170348142365e-01  4.6446032642835833e-01  4.6443340545822892e-01  4.6439689526293781e-01  4.6434884910938279e-01  4.6428884803633008e-01  4.6421752957946860e-01  4.6413621810445704e-01  4.6404665149342028e-01  4.6395079411996820e-01  4.6385072245513764e-01  4.6374856628346761e-01  4.6364648514141432e-01  4.6354665792718225e-01  4.6345126932731362e-01  4.6336250032265669e-01  4.6328257755698526e-01  4.6321396901094170e-01  4.6315973173701597e-01  4.6312375094381103e-01  5.1305711308944668e-01  5.1301811083046922e-01  4.6302521249720663e-01  4.6303126424726071e-01  4.6304076614101752e-01  4.6305263448327183e-01  4.6306594128692763e-01  4.6307993205155529e-01  4.6309393524379805e-01  4.6310732367474006e-01  4.6311952636626585e-01  4.6313006346286001e-01  4.6313858945813852e-01  4.6314494405786816e-01  4.6314921618214255e-01  4.6315182759302387e-01  4.6315364145070320e-01  4.6315609912594757e-01  4.6316138606777768e-01  4.6317262416038218e-01  4.6319408334206374e-01  4.6323139879610320e-01  4.6329177132411142e-01  4.6338411732038404e-01  4.6351912126234374e-01  4.6370912884079352e-01  4.6396780529105491e-01  4.6430947600281403e-01  4.6474807309756572e-01  4.6529564383365229e-01  4.6596044805023623e-01  4.6674479370219996e-01  4.6764293135086993e-01  4.6863952186119884e-01  4.6970932715412311e-01  4.7081869095223877e-01  4.7192879034477220e-01  4.7299907492351562e-01  4.7398606486270994e-01  4.7482746596618702e-01  4.7539995483203090e-01  4.7548635768201375e-01  4.7488397990421194e-01  4.7359906614352831e-01  4.7183428082236117e-01  4.6989333711985420e-01  5.1066043572609476e-01  5.2156853987718821e-01  5.2939661002592409e-01  5.2859131083221222e-01  5.2824288205650116e-01  5.2805240542226506e-01  5.2835874582070042e-01  5.2871485197876344e-01  5.3013818597808271e-01  5.3249162408583617e-01  5.2200834422743858e-01  4.7553421509477822e-01  4.7963651145565522e-01  4.8304564416164214e-01  4.8507144866370611e-01  4.8569181312944965e-01  4.8528379813788941e-01  4.8418727481609308e-01  4.8261219786623993e-01  4.8069632981036681e-01  4.7856202898248723e-01  4.7633661677009609e-01  4.7414631146962360e-01  4.7210095372420791e-01  4.7028133522977278e-01  4.6873394736228446e-01  4.6747298161604622e-01  4.6648702337063797e-01  4.6574750168660894e-01  4.6521667963947028e-01  4.6485399954993212e-01  4.6462045563461696e-01  4.6448118654055615e-01  4.6440669718902483e-01  4.6437314208620450e-01  4.6436203252029923e-01  4.6435963477005288e-01  4.6435623933308801e-01  4.6434541393287049e-01  4.6432330594176413e-01  4.6428802878590608e-01  4.6423914714972181e-01  4.6417726343647819e-01  4.6410370008403712e-01  4.6402026695896703e-01  4.6392909881886812e-01  4.6383254417853603e-01  4.6373308476504582e-01  4.6363326806236921e-01  4.6353565333896396e-01  4.6344281721782843e-01  4.6335753620945508e-01  4.6328326770486838e-01  4.6322467575387455e-01  4.6318673683929679e-01  5.1308611175047592e-01  5.1302632272896642e-01  4.6304090076382404e-01  4.6304564864629794e-01  4.6305469041484554e-01  4.6306663490379296e-01  4.6308013187424935e-01  4.6309420356960690e-01  4.6310810461022456e-01  4.6312120187483635e-01  4.6313294270512939e-01  4.6314287929708275e-01  4.6315071880485553e-01  4.6315638762639788e-01  4.6316011029133464e-01  4.6316250779245766e-01  4.6316472046963947e-01  4.6316855890817366e-01  4.6317668359109376e-01  4.6319281027896930e-01  4.6322193294075870e-01  4.6327054909042475e-01  4.6334686319818852e-01  4.6346093228942448e-01  4.6362470425994246e-01  4.6385188512052378e-01  4.6415755923350915e-01  4.6455748191928392e-01  4.6506697500725824e-01  4.6569939456101789e-01  4.6646421918169673e-01  4.6736493661470846e-01  4.6839708204184666e-01  4.6954696962487658e-01  4.7079177087701796e-01  4.7210144642582363e-01  4.7344227676159806e-01  4.7477965778905984e-01  4.7607305595324834e-01  4.7724677749638694e-01  4.7811212386049851e-01  4.7829911489325755e-01  4.7744491612708789e-01  4.7555151205960888e-01  4.7300646131624224e-01  5.1321062836279308e-01  5.2278599686527927e-01  5.2957964018352910e-01  5.2862237969988701e-01  5.2710872173677359e-01  5.2710872173682766e-01  5.2710872173689627e-01  5.2710872173680767e-01  5.2710872173695589e-01  5.2710872173696266e-01  5.3028161899366710e-01  5.3507154400795798e-01  5.2890909149228504e-01  4.8336742423930684e-01  4.8839056469334291e-01  4.9151744574230477e-01  4.9219305811620656e-01  4.9116825656228408e-01  4.8924953986968089e-01  4.8687401641058148e-01  4.8424706872615914e-01  4.8149531416475733e-01  4.7873389538890143e-01  4.7607717416448231e-01  4.7362721854623524e-01  4.7146029815896029e-01  4.6961977592209769e-01  4.6811662917833924e-01  4.6693542669805765e-01  4.6604271679663722e-01  4.6539532732202238e-01  4.6494712683396122e-01  4.6465375459013986e-01  4.6447544687869191e-01  4.6437837059688858e-01  4.6433492851211811e-01  4.6432343640468393e-01  4.6432746932474256e-01  4.6433507559743969e-01  4.6433797997699522e-01  4.6433084363750760e-01  4.6431061423582326e-01  4.6427597836623158e-01  4.6422691635594315e-01  4.6416435187571725e-01  4.6408988388793876e-01  4.6400558474607595e-01  4.6391384582858208e-01  4.6381725313450667e-01  4.6371848592317733e-01  4.6362026355947838e-01  4.6352543297858745e-01  4.6343737618190495e-01  4.6336085933064941e-01  4.6330262238765541e-01  4.6326826378301655e-01  5.1312518737760959e-01  5.1303681791406297e-01  4.6306054060286383e-01  4.6306253453890533e-01  4.6306998116142112e-01  4.6308127686730760e-01  4.6309452560204589e-01  4.6310842511540962e-01  4.6312211018529570e-01  4.6313493910151371e-01  4.6314639878087677e-01  4.6315610177628364e-01  4.6316383171163944e-01  4.6316961414204910e-01  4.6317380655520435e-01  4.6317720931187734e-01  4.6318120163157683e-01  4.6318790596085202e-01  4.6320038156665799e-01  4.6322284433989380e-01  4.6326090442293061e-01  4.6332180605063733e-01  4.63414644608