<?xml version="1.0"?>
<VTKFile type="UnstructuredGrid"  version="0.1"  >
<UnstructuredGrid>
<Piece  NumberOfPoints="5151" NumberOfCells="10000">
<Points>
<DataArray  type="Float64"  NumberOfComponents="3"  format="ascii">0 0 0  0.02 0 0  0.04 0 0  0.06 0 0  0.08 0 0  0.1 0 0  0.12 0 0  0.14 0 0  0.16 0 0  0.18 0 0  0.2 0 0  0.22 0 0  0.24 0 0  0.26 0 0  0.28 0 0  0.3 0 0  0.32 0 0  0.34 0 0  0.36 0 0  0.38 0 0  0.4 0 0  0.42 0 0  0.44 0 0  0.46 0 0  0.48 0 0  0.5 0 0  0.52 0 0  0.54 0 0  0.5600000000000001 0 0  0.58 0 0  0.6 0 0  0.62 0 0  0.64 0 0  0.66 0 0  0.68 0 0  0.7 0 0  0.72 0 0  0.74 0 0  0.76 0 0  0.78 0 0  0.8 0 0  0.82 0 0  0.84 0 0  0.86 0 0  0.88 0 0  0.9 0 0  0.92 0 0  0.9399999999999999 0 0  0.96 0 0  0.98 0 0  1 0 0  1.02 0 0  1.04 0 0  1.06 0 0  1.08 0 0  1.1 0 0  1.12 0 0  1.14 0 0  1.16 0 0  1.18 0 0  1.2 0 0  1.22 0 0  1.24 0 0  1.26 0 0  1.28 0 0  1.3 0 0  1.32 0 0  1.34 0 0  1.36 0 0  1.38 0 0  1.4 0 0  1.42 0 0  1.44 0 0  1.46 0 0  1.48 0 0  1.5 0 0  1.52 0 0  1.54 0 0  1.56 0 0  1.58 0 0  1.6 0 0  1.62 0 0  1.64 0 0  1.66 0 0  1.68 0 0  1.7 0 0  1.72 0 0  1.74 0 0  1.76 0 0  1.78 0 0  1.8 0 0  1.82 0 0  1.84 0 0  1.86 0 0  1.88 0 0  1.9 0 0  1.92 0 0  1.94 0 0  1.96 0 0  1.98 0 0  2 0 0  0 0.02 0  0.02 0.02 0  0.04 0.02 0  0.06 0.02 0  0.08 0.02 0  0.1 0.02 0  0.12 0.02 0  0.14 0.02 0  0.16 0.02 0  0.18 0.02 0  0.2 0.02 0  0.22 0.02 0  0.24 0.02 0  0.26 0.02 0  0.28 0.02 0  0.3 0.02 0  0.32 0.02 0  0.34 0.02 0  0.36 0.02 0  0.38 0.02 0  0.4 0.02 0  0.42 0.02 0  0.44 0.02 0  0.46 0.02 0  0.48 0.02 0  0.5 0.02 0  0.52 0.02 0  0.54 0.02 0  0.5600000000000001 0.02 0  0.58 0.02 0  0.6 0.02 0  0.62 0.02 0  0.64 0.02 0  0.66 0.02 0  0.68 0.02 0  0.7 0.02 0  0.72 0.02 0  0.74 0.02 0  0.76 0.02 0  0.78 0.02 0  0.8 0.02 0  0.82 0.02 0  0.84 0.02 0  0.86 0.02 0  0.88 0.02 0  0.9 0.02 0  0.92 0.02 0  0.9399999999999999 0.02 0  0.96 0.02 0  0.98 0.02 0  1 0.02 0  1.02 0.02 0  1.04 0.02 0  1.06 0.02 0  1.08 0.02 0  1.1 0.02 0  1.12 0.02 0  1.14 0.02 0  1.16 0.02 0  1.18 0.02 0  1.2 0.02 0  1.22 0.02 0  1.24 0.02 0  1.26 0.02 0  1.28 0.02 0  1.3 0.02 0  1.32 0.02 0  1.34 0.02 0  1.36 0.02 0  1.38 0.02 0  1.4 0.02 0  1.42 0.02 0  1.44 0.02 0  1.46 0.02 0  1.48 0.02 0  1.5 0.02 0  1.52 0.02 0  1.54 0.02 0  1.56 0.02 0  1.58 0.02 0  1.6 0.02 0  1.62 0.02 0  1.64 0.02 0  1.66 0.02 0  1.68 0.02 0  1.7 0.02 0  1.72 0.02 0  1.74 0.02 0  1.76 0.02 0  1.78 0.02 0  1.8 0.02 0  1.82 0.02 0  1.84 0.02 0  1.86 0.02 0  1.88 0.02 0  1.9 0.02 0  1.92 0.02 0  1.94 0.02 0  1.96 0.02 0  1.98 0.02 0  2 0.02 0  0 0.04 0  0.02 0.04 0  0.04 0.04 0  0.06 0.04 0  0.08 0.04 0  0.1 0.04 0  0.12 0.04 0  0.14 0.04 0  0.16 0.04 0  0.18 0.04 0  0.2 0.04 0  0.22 0.04 0  0.24 0.04 0  0.26 0.04 0  0.28 0.04 0  0.3 0.04 0  0.32 0.04 0  0.34 0.04 0  0.36 0.04 0  0.38 0.04 0  0.4 0.04 0  0.42 0.04 0  0.44 0.04 0  0.46 0.04 0  0.48 0.04 0  0.5 0.04 0  0.52 0.04 0  0.54 0.04 0  0.5600000000000001 0.04 0  0.58 0.04 0  0.6 0.04 0  0.62 0.04 0  0.64 0.04 0  0.66 0.04 0  0.68 0.04 0  0.7 0.04 0  0.72 0.04 0  0.74 0.04 0  0.76 0.04 0  0.78 0.04 0  0.8 0.04 0  0.82 0.04 0  0.84 0.04 0  0.86 0.04 0  0.88 0.04 0  0.9 0.04 0  0.92 0.04 0  0.9399999999999999 0.04 0  0.96 0.04 0  0.98 0.04 0  1 0.04 0  1.02 0.04 0  1.04 0.04 0  1.06 0.04 0  1.08 0.04 0  1.1 0.04 0  1.12 0.04 0  1.14 0.04 0  1.16 0.04 0  1.18 0.04 0  1.2 0.04 0  1.22 0.04 0  1.24 0.04 0  1.26 0.04 0  1.28 0.04 0  1.3 0.04 0  1.32 0.04 0  1.34 0.04 0  1.36 0.04 0  1.38 0.04 0  1.4 0.04 0  1.42 0.04 0  1.44 0.04 0  1.46 0.04 0  1.48 0.04 0  1.5 0.04 0  1.52 0.04 0  1.54 0.04 0  1.56 0.04 0  1.58 0.04 0  1.6 0.04 0  1.62 0.04 0  1.64 0.04 0  1.66 0.04 0  1.68 0.04 0  1.7 0.04 0  1.72 0.04 0  1.74 0.04 0  1.76 0.04 0  1.78 0.04 0  1.8 0.04 0  1.82 0.04 0  1.84 0.04 0  1.86 0.04 0  1.88 0.04 0  1.9 0.04 0  1.92 0.04 0  1.94 0.04 0  1.96 0.04 0  1.98 0.04 0  2 0.04 0  0 0.06 0  0.02 0.06 0  0.04 0.06 0  0.06 0.06 0  0.08 0.06 0  0.1 0.06 0  0.12 0.06 0  0.14 0.06 0  0.16 0.06 0  0.18 0.06 0  0.2 0.06 0  0.22 0.06 0  0.24 0.06 0  0.26 0.06 0  0.28 0.06 0  0.3 0.06 0  0.32 0.06 0  0.34 0.06 0  0.36 0.06 0  0.38 0.06 0  0.4 0.06 0  0.42 0.06 0  0.44 0.06 0  0.46 0.06 0  0.48 0.06 0  0.5 0.06 0  0.52 0.06 0  0.54 0.06 0  0.5600000000000001 0.06 0  0.58 0.06 0  0.6 0.06 0  0.62 0.06 0  0.64 0.06 0  0.66 0.06 0  0.68 0.06 0  0.7 0.06 0  0.72 0.06 0  0.74 0.06 0  0.76 0.06 0  0.78 0.06 0  0.8 0.06 0  0.82 0.06 0  0.84 0.06 0  0.86 0.06 0  0.88 0.06 0  0.9 0.06 0  0.92 0.06 0  0.9399999999999999 0.06 0  0.96 0.06 0  0.98 0.06 0  1 0.06 0  1.02 0.06 0  1.04 0.06 0  1.06 0.06 0  1.08 0.06 0  1.1 0.06 0  1.12 0.06 0  1.14 0.06 0  1.16 0.06 0  1.18 0.06 0  1.2 0.06 0  1.22 0.06 0  1.24 0.06 0  1.26 0.06 0  1.28 0.06 0  1.3 0.06 0  1.32 0.06 0  1.34 0.06 0  1.36 0.06 0  1.38 0.06 0  1.4 0.06 0  1.42 0.06 0  1.44 0.06 0  1.46 0.06 0  1.48 0.06 0  1.5 0.06 0  1.52 0.06 0  1.54 0.06 0  1.56 0.06 0  1.58 0.06 0  1.6 0.06 0  1.62 0.06 0  1.64 0.06 0  1.66 0.06 0  1.68 0.06 0  1.7 0.06 0  1.72 0.06 0  1.74 0.06 0  1.76 0.06 0  1.78 0.06 0  1.8 0.06 0  1.82 0.06 0  1.84 0.06 0  1.86 0.06 0  1.88 0.06 0  1.9 0.06 0  1.92 0.06 0  1.94 0.06 0  1.96 0.06 0  1.98 0.06 0  2 0.06 0  0 0.08 0  0.02 0.08 0  0.04 0.08 0  0.06 0.08 0  0.08 0.08 0  0.1 0.08 0  0.12 0.08 0  0.14 0.08 0  0.16 0.08 0  0.18 0.08 0  0.2 0.08 0  0.22 0.08 0  0.24 0.08 0  0.26 0.08 0  0.28 0.08 0  0.3 0.08 0  0.32 0.08 0  0.34 0.08 0  0.36 0.08 0  0.38 0.08 0  0.4 0.08 0  0.42 0.08 0  0.44 0.08 0  0.46 0.08 0  0.48 0.08 0  0.5 0.08 0  0.52 0.08 0  0.54 0.08 0  0.5600000000000001 0.08 0  0.58 0.08 0  0.6 0.08 0  0.62 0.08 0  0.64 0.08 0  0.66 0.08 0  0.68 0.08 0  0.7 0.08 0  0.72 0.08 0  0.74 0.08 0  0.76 0.08 0  0.78 0.08 0  0.8 0.08 0  0.82 0.08 0  0.84 0.08 0  0.86 0.08 0  0.88 0.08 0  0.9 0.08 0  0.92 0.08 0  0.9399999999999999 0.08 0  0.96 0.08 0  0.98 0.08 0  1 0.08 0  1.02 0.08 0  1.04 0.08 0  1.06 0.08 0  1.08 0.08 0  1.1 0.08 0  1.12 0.08 0  1.14 0.08 0  1.16 0.08 0  1.18 0.08 0  1.2 0.08 0  1.22 0.08 0  1.24 0.08 0  1.26 0.08 0  1.28 0.08 0  1.3 0.08 0  1.32 0.08 0  1.34 0.08 0  1.36 0.08 0  1.38 0.08 0  1.4 0.08 0  1.42 0.08 0  1.44 0.08 0  1.46 0.08 0  1.48 0.08 0  1.5 0.08 0  1.52 0.08 0  1.54 0.08 0  1.56 0.08 0  1.58 0.08 0  1.6 0.08 0  1.62 0.08 0  1.64 0.08 0  1.66 0.08 0  1.68 0.08 0  1.7 0.08 0  1.72 0.08 0  1.74 0.08 0  1.76 0.08 0  1.78 0.08 0  1.8 0.08 0  1.82 0.08 0  1.84 0.08 0  1.86 0.08 0  1.88 0.08 0  1.9 0.08 0  1.92 0.08 0  1.94 0.08 0  1.96 0.08 0  1.98 0.08 0  2 0.08 0  0 0.1 0  0.02 0.1 0  0.04 0.1 0  0.06 0.1 0  0.08 0.1 0  0.1 0.1 0  0.12 0.1 0  0.14 0.1 0  0.16 0.1 0  0.18 0.1 0  0.2 0.1 0  0.22 0.1 0  0.24 0.1 0  0.26 0.1 0  0.28 0.1 0  0.3 0.1 0  0.32 0.1 0  0.34 0.1 0  0.36 0.1 0  0.38 0.1 0  0.4 0.1 0  0.42 0.1 0  0.44 0.1 0  0.46 0.1 0  0.48 0.1 0  0.5 0.1 0  0.52 0.1 0  0.54 0.1 0  0.5600000000000001 0.1 0  0.58 0.1 0  0.6 0.1 0  0.62 0.1 0  0.64 0.1 0  0.66 0.1 0  0.68 0.1 0  0.7 0.1 0  0.72 0.1 0  0.74 0.1 0  0.76 0.1 0  0.78 0.1 0  0.8 0.1 0  0.82 0.1 0  0.84 0.1 0  0.86 0.1 0  0.88 0.1 0  0.9 0.1 0  0.92 0.1 0  0.9399999999999999 0.1 0  0.96 0.1 0  0.98 0.1 0  1 0.1 0  1.02 0.1 0  1.04 0.1 0  1.06 0.1 0  1.08 0.1 0  1.1 0.1 0  1.12 0.1 0  1.14 0.1 0  1.16 0.1 0  1.18 0.1 0  1.2 0.1 0  1.22 0.1 0  1.24 0.1 0  1.26 0.1 0  1.28 0.1 0  1.3 0.1 0  1.32 0.1 0  1.34 0.1 0  1.36 0.1 0  1.38 0.1 0  1.4 0.1 0  1.42 0.1 0  1.44 0.1 0  1.46 0.1 0  1.48 0.1 0  1.5 0.1 0  1.52 0.1 0  1.54 0.1 0  1.56 0.1 0  1.58 0.1 0  1.6 0.1 0  1.62 0.1 0  1.64 0.1 0  1.66 0.1 0  1.68 0.1 0  1.7 0.1 0  1.72 0.1 0  1.74 0.1 0  1.76 0.1 0  1.78 0.1 0  1.8 0.1 0  1.82 0.1 0  1.84 0.1 0  1.86 0.1 0  1.88 0.1 0  1.9 0.1 0  1.92 0.1 0  1.94 0.1 0  1.96 0.1 0  1.98 0.1 0  2 0.1 0  0 0.12 0  0.02 0.12 0  0.04 0.12 0  0.06 0.12 0  0.08 0.12 0  0.1 0.12 0  0.12 0.12 0  0.14 0.12 0  0.16 0.12 0  0.18 0.12 0  0.2 0.12 0  0.22 0.12 0  0.24 0.12 0  0.26 0.12 0  0.28 0.12 0  0.3 0.12 0  0.32 0.12 0  0.34 0.12 0  0.36 0.12 0  0.38 0.12 0  0.4 0.12 0  0.42 0.12 0  0.44 0.12 0  0.46 0.12 0  0.48 0.12 0  0.5 0.12 0  0.52 0.12 0  0.54 0.12 0  0.5600000000000001 0.12 0  0.58 0.12 0  0.6 0.12 0  0.62 0.12 0  0.64 0.12 0  0.66 0.12 0  0.68 0.12 0  0.7 0.12 0  0.72 0.12 0  0.74 0.12 0  0.76 0.12 0  0.78 0.12 0  0.8 0.12 0  0.82 0.12 0  0.84 0.12 0  0.86 0.12 0  0.88 0.12 0  0.9 0.12 0  0.92 0.12 0  0.9399999999999999 0.12 0  0.96 0.12 0  0.98 0.12 0  1 0.12 0  1.02 0.12 0  1.04 0.12 0  1.06 0.12 0  1.08 0.12 0  1.1 0.12 0  1.12 0.12 0  1.14 0.12 0  1.16 0.12 0  1.18 0.12 0  1.2 0.12 0  1.22 0.12 0  1.24 0.12 0  1.26 0.12 0  1.28 0.12 0  1.3 0.12 0  1.32 0.12 0  1.34 0.12 0  1.36 0.12 0  1.38 0.12 0  1.4 0.12 0  1.42 0.12 0  1.44 0.12 0  1.46 0.12 0  1.48 0.12 0  1.5 0.12 0  1.52 0.12 0  1.54 0.12 0  1.56 0.12 0  1.58 0.12 0  1.6 0.12 0  1.62 0.12 0  1.64 0.12 0  1.66 0.12 0  1.68 0.12 0  1.7 0.12 0  1.72 0.12 0  1.74 0.12 0  1.76 0.12 0  1.78 0.12 0  1.8 0.12 0  1.82 0.12 0  1.84 0.12 0  1.86 0.12 0  1.88 0.12 0  1.9 0.12 0  1.92 0.12 0  1.94 0.12 0  1.96 0.12 0  1.98 0.12 0  2 0.12 0  0 0.14 0  0.02 0.14 0  0.04 0.14 0  0.06 0.14 0  0.08 0.14 0  0.1 0.14 0  0.12 0.14 0  0.14 0.14 0  0.16 0.14 0  0.18 0.14 0  0.2 0.14 0  0.22 0.14 0  0.24 0.14 0  0.26 0.14 0  0.28 0.14 0  0.3 0.14 0  0.32 0.14 0  0.34 0.14 0  0.36 0.14 0  0.38 0.14 0  0.4 0.14 0  0.42 0.14 0  0.44 0.14 0  0.46 0.14 0  0.48 0.14 0  0.5 0.14 0  0.52 0.14 0  0.54 0.14 0  0.5600000000000001 0.14 0  0.58 0.14 0  0.6 0.14 0  0.62 0.14 0  0.64 0.14 0  0.66 0.14 0  0.68 0.14 0  0.7 0.14 0  0.72 0.14 0  0.74 0.14 0  0.76 0.14 0  0.78 0.14 0  0.8 0.14 0  0.82 0.14 0  0.84 0.14 0  0.86 0.14 0  0.88 0.14 0  0.9 0.14 0  0.92 0.14 0  0.9399999999999999 0.14 0  0.96 0.14 0  0.98 0.14 0  1 0.14 0  1.02 0.14 0  1.04 0.14 0  1.06 0.14 0  1.08 0.14 0  1.1 0.14 0  1.12 0.14 0  1.14 0.14 0  1.16 0.14 0  1.18 0.14 0  1.2 0.14 0  1.22 0.14 0  1.24 0.14 0  1.26 0.14 0  1.28 0.14 0  1.3 0.14 0  1.32 0.14 0  1.34 0.14 0  1.36 0.14 0  1.38 0.14 0  1.4 0.14 0  1.42 0.14 0  1.44 0.14 0  1.46 0.14 0  1.48 0.14 0  1
[...]
<PointData  Scalars="sols[i]"> 
<DataArray  type="Float64"  Name="sols[i]"  format="ascii">2.3171159388664755e-01  1.6457843002885519e-01  1.6457836584098945e-01  1.6457824649870806e-01  1.6457804622982888e-01  1.6457772758302242e-01  1.6457723868061636e-01  1.6457651268809140e-01  1.6457546927581332e-01  1.6457401717591022e-01  1.6457205705619546e-01  1.6456948413687564e-01  1.6456619005456027e-01  1.6456206346094684e-01  1.6455698881721326e-01  1.6455084288120289e-01  1.6454348851795803e-01  1.6453476568813924e-01  1.6452447978536472e-01  1.6451238791186026e-01  1.6449818417070414e-01  1.6448148582166608e-01  1.6446182338627302e-01  1.6443863964307109e-01  1.6441130191854997e-01  1.6437913316588443e-01  1.6434146470190925e-01  1.6429770957988057e-01  1.6424745248809419e-01  1.6419054882757028e-01  1.6412722322712450e-01  1.6405815629632031e-01  1.6398454806529264e-01  1.6390814765477602e-01  1.6383124161941984e-01  1.6375659800528800e-01  1.6368736821919702e-01  1.6362695586027087e-01  1.6357888088028477e-01  1.6354662347062693e-01  1.6353344742368670e-01  1.6354228345133254e-01  1.6357561764378345e-01  1.6363540308981409e-01  1.6372299589473996e-01  1.6383910853065670e-01  1.6398377309848775e-01  1.6415631122308263e-01  1.6435531749847609e-01  1.6457867922692537e-01  1.6482365989114423e-01  1.6508705694177675e-01  1.6536540756234896e-01  1.6565516377811326e-01  1.6595272597152907e-01  1.6625427432957163e-01  1.6655556076070566e-01  1.6685195173184006e-01  1.6713878754557449e-01  1.6741177841317656e-01  1.6766703603596461e-01  1.6790094891232882e-01  1.6811035801164953e-01  1.6829256300496931e-01  1.6844506377625876e-01  1.6856625573157627e-01  1.6865721498855446e-01  1.6872267301338306e-01  1.6877015984224011e-01  1.6880933030870918e-01  1.6885351522085670e-01  1.6892237590808182e-01  1.6904252861880267e-01  1.6924406006689416e-01  1.6955304913349861e-01  1.6998103108640125e-01  1.7051160083677180e-01  1.7108568396953686e-01  1.7159533023224408e-01  1.7190960245508824e-01  1.7193256794078793e-01  1.7165105431816810e-01  1.7114175756671329e-01  1.7051909494832232e-01  1.6987116708909669e-01  1.6923768248230467e-01  1.6862494815359724e-01  1.6802939658109259e-01  1.6745259674398652e-01  1.6690506736436983e-01  1.6640253669979765e-01  1.6596001008144642e-01  1.6558737604631435e-01  1.6528771306397191e-01  1.6505779477777299e-01  1.6488978715585395e-01  1.6477330268408347e-01  1.6469733996683303e-01  1.6465194331826116e-01  1.6462958681211798e-01  3.4458792363359975e-01  1.6457842594323197e-01  8.9435917290263275e-02  8.9436237721262912e-02  8.9436824751112060e-02  8.9437762667622697e-02  8.9439156201349124e-02  8.9441131469470608e-02  8.9443833068189024e-02  8.9447417471538532e-02  8.9452044965158337e-02  8.9457871879160294e-02  8.9465043953049717e-02  8.9473690915326101e-02  8.9483921864952201e-02  8.9495820762566194e-02  8.9509441251790070e-02  8.9524800141633304e-02  8.9541869210265024e-02  8.9560565529905947e-02  8.9580741200655789e-02  8.9602174116664338e-02  8.9624561897795829e-02  8.9647521183974663e-02  8.9670594110641849e-02  8.9693262806160690e-02  8.9714972030618304e-02  8.9735159061718570e-02  8.9753288694630867e-02  8.9768890660781975e-02  8.9781596135955405e-02  8.9791169860654080e-02  8.9797534875643847e-02  8.9800787851363029e-02  8.9801204161494605e-02  8.9799232872277521e-02  8.9795482444040731e-02  8.9790698058416996e-02  8.9785731114682049e-02  8.9781503196312798e-02  8.9778979015313065e-02  8.9779124980893826e-02  8.9782859859824954e-02  8.9791027531571324e-02  8.9804372277721103e-02  8.9823521200254219e-02  8.9848973050179970e-02  8.9881089289005262e-02  8.9920082240192212e-02  8.9965997708100598e-02  9.0018698149644819e-02  9.0077860194241188e-02  9.0142999902030493e-02  9.0213528158284775e-02  9.0288811698484683e-02  9.0368188116808856e-02  9.0450888113288622e-02  9.0535925511884011e-02  9.0622092389408479e-02  9.0708095658310076e-02  9.0792706784700528e-02  9.0874717879020836e-02  9.0952848988367488e-02  9.1025867701360980e-02  9.1092574530436413e-02  9.1151521251656306e-02  9.1201125651036219e-02  9.1240420910347980e-02  9.1269689598918666e-02  9.1290340045881671e-02  9.1304646775766926e-02  9.1316273426171365e-02  9.1331531600308963e-02  9.1360272302900628e-02  9.1415646336040143e-02  9.1512294832728117e-02  9.1662452432317965e-02  9.1869692192661376e-02  9.2120170083436717e-02  9.2373947359561101e-02  9.2569864269852822e-02  9.2650680329115484e-02  9.2591630221701443e-02  9.2415302206658737e-02  9.2171910687590147e-02  9.1905582070296782e-02  9.1639004456623541e-02  9.1377451384635142e-02  9.1119368875800244e-02  9.0864344581191372e-02  9.0616223954921776e-02  9.0382203920586879e-02  9.0170178347666816e-02  8.9986332895746354e-02  8.9833887032862242e-02  8.9712983116311373e-02  8.9621317948391579e-02  8.9555076795412358e-02  8.9509857591927325e-02  8.9481434753915581e-02  8.9466359103543336e-02  1.6462868685764909e-01  1.6457834805327040e-01  8.9436236572440819e-02  8.9436723170524132e-02  8.9437574851054275e-02  8.9438863469057411e-02  8.9440665104648195e-02  8.9443060464683727e-02  8.9446137945603146e-02  8.9449994192189186e-02  8.9454731615488073e-02  8.9460454063016170e-02  8.9467261795968894e-02  8.9475246394118482e-02  8.9484485690924778e-02  8.9495038491399295e-02  8.9506938683125911e-02  8.9520188432771292e-02  8.9534750475637789e-02  8.9550540005284868e-02  8.9567417251967263e-02  8.9585182411179964e-02  8.9603574735798067e-02  8.9622277174553733e-02  8.9640927151430988e-02  8.9659133157761389e-02  8.9676496030027961e-02  8.9692633371008357e-02  8.9707205110625243e-02  8.9719938152437242e-02  8.9730647988475631e-02  8.9739255490333236e-02  8.9745797842078173e-02  8.9750433469445154e-02  8.9753441497916239e-02  8.9755216497665921e-02  8.9756259045040573e-02  8.9757162184219225e-02  8.9758593430570355e-02  8.9761271973580872e-02  8.9765946900707175e-02  8.9773377144933567e-02  8.9784295440792708e-02  8.9799383409654099e-02  8.9819254068104759e-02  8.9844438363747586e-02  8.9875373852578211e-02  8.9912390886420820e-02  8.9955691362830298e-02  9.0005319410309120e-02  9.0061138347541161e-02  9.0122835779789343e-02  9.0189971803251903e-02  9.0262069457178060e-02  9.0338705278045675e-02  9.0419516160244684e-02  9.0504047133829271e-02  9.0591580282212175e-02  9.0681182762763560e-02  9.0771975303571215e-02  9.0863354742946961e-02  9.0954759411363703e-02  9.1045368676318822e-02  9.1134352691598822e-02  9.1220952554515122e-02  9.1303948386845135e-02  9.1381321590761067e-02  9.1450723420282071e-02  9.1510517978765998e-02  9.1560518855207593e-02  9.1602021610183881e-02  9.1637814316835195e-02  9.1673351008203938e-02  9.1717865394517067e-02  9.1785031913202614e-02  9.1892706417595602e-02  9.2057969186339336e-02  9.2286427976884189e-02  9.2557559774091774e-02  9.2810529873468120e-02  9.2957960904364437e-02  9.2930671948439139e-02  9.2715367763748918e-02  9.2372716046359910e-02  9.1995980636256094e-02  9.1651002513390215e-02  9.1359713199323636e-02  9.1114955587816640e-02  9.0900099924090483e-02  9.0700942196397655e-02  9.0510379215194045e-02  9.0327939825372891e-02  9.0157017219051852e-02  9.0002044860174102e-02  8.9866600440577815e-02  8.9752579679673539e-02  8.9660186437908782e-02  8.9588373958294762e-02  8.9535419953675449e-02  8.9499459303837056e-02  8.9479006556793778e-02  1.6464693278571593e-01  1.6457819675112098e-01  8.9436820397524347e-02  8.9437570790936768e-02  8.9438808647391663e-02  8.9440577393192389e-02  8.9442918401788404e-02  8.9445865773665437e-02  8.9449450685969004e-02  8.9453707267687532e-02  8.9458675753451677e-02  8.9464402404662718e-02  8.9470937019749106e-02  8.9478328915388511e-02  8.9486621912115649e-02  8.9495848510541709e-02  8.9506023271333932e-02  8.9517135483961632e-02  8.9529141550968833e-02  8.9541958021587237e-02  8.9555456720491297e-02  8.9569463905062027e-02  8.9583765061866785e-02  8.9598115794295427e-02  8.9612257923422978e-02  8.9625938886656098e-02  8.9638931971452993e-02  8.9651055020424419e-02  8.9662185758032670e-02  8.9672272432508013e-02  8.9681338881244368e-02  8.9689484049276444e-02  8.9696877167491487e-02  8.9703750679841876e-02  8.9710393157853230e-02  8.9717143691126600e-02  8.9724387894117297e-02  8.9732554451379690e-02  8.9742110577099118e-02  8.9753553458586766e-02  8.9767399438552567e-02  8.9784177337207158e-02  8.9804408922501383e-02  8.9828591663269508e-02  8.9857189151029457e-02  8.9890624978286510e-02  8.9929273928292058e-02  8.9973443325258390e-02  9.0023337887282104e-02  9.0079009050907821e-02  9.0140320719046124e-02  9.0206969300561268e-02  9.0278575259974375e-02  9.0354845874828005e-02  9.0435736753150323e-02  9.0521459998309392e-02  9.0612184548791927e-02  9.0707741055210026e-02  9.0807753002524527e-02  9.0912103612283440e-02  9.1021329524633876e-02  9.1136107804263650e-02  9.1256483289346102e-02  9.1382069552439632e-02  9.1512335754822524e-02  9.1646277026834685e-02  9.1781330819815862e-02  9.1912366719663685e-02  9.2032791880279172e-02  9.2137593468416518e-02  9.2225217604994372e-02  9.2297063847805047e-02  9.2360060680016967e-02  9.2428552736942421e-02  9.2521061646319819e-02  9.2654065628594490e-02  9.2835471850115328e-02  9.3060714287617835e-02  9.3314354871398900e-02  9.3574186842198509e-02  9.3775545475219185e-02  9.3730876775070110e-02  9.3299056250616005e-02  9.2654284437627077e-02  9.2034862759645703e-02  9.1526882007409688e-02  9.1159020854457790e-02  9.0905262189741431e-02  9.0722575264554545e-02  9.0574056466252773e-02  9.0437114958282647e-02  9.0302317034561999e-02  9.0168695076399352e-02  9.0039330457839253e-02  8.9918366250654191e-02  8.9809408998664603e-02  8.9714948188422738e-02  8.9636389486922902e-02  8.9574380723615718e-02  8.9529267302498036e-02  8.9501745983588260e-02  1.6468265688434758e-01  1.6457793269803864e-01  8.9437749973075353e-02  8.9438847433178786e-02  8.9440561793330889e-02  8.9442885866136773e-02  8.9445820925050518e-02  8.9449360174752662e-02  8.9453488032727443e-02  8.9458187037313244e-02  8.9463444701996159e-02  8.9469257298723001e-02  8.9475630275669349e-02  8.9482575938087991e-02  8.9490109058874709e-02  8.9498240866893716e-02  8.9506971730636348e-02  8.9516282982002524e-02  8.9526128791000997e-02  8.9536429606270021e-02  8.9547069177634719e-02  8.9557897767132966e-02  8.9568743106928403e-02  8.9579428369074870e-02  8.9589794430440406e-02  8.9599722635519227e-02  8.9609154114156958e-02  8.9618102708059005e-02  8.9626660037030348e-02  8.9634992184251097e-02  8.9643328221818183e-02  8.9651942388367045e-02  8.9661133514941760e-02  8.9671206228758016e-02  8.9682457988318379e-02  8.9695174009296982e-02  8.9709629316978998e-02  8.9726094925487040e-02  8.9744844688004519e-02  8.9766160309652634e-02  8.9790339416743623e-02  8.9817695807743042e-02  8.9848539911852404e-02  8.9883182949819812e-02  8.9921941356461366e-02  8.9965142780061805e-02  9.0013124982216308e-02  9.0066214628783170e-02  9.0124673280320547e-02  9.0188610931116506e-02  9.0257937092518864e-02  9.0332413592770416e-02  9.0411817049417489e-02  9.0496220271794575e-02  9.0586283818815505e-02  9.0683287478134145e-02  9.0788552821017096e-02  9.0902965786549009e-02  9.1027308035936824e-02  9.1162869783619177e-02  9.1311914376235565e-02  9.1476896528682253e-02  9.1659237118941583e-02  9.1858591435499445e-02  9.2072453592364836e-02  9.2297946066147635e-02  9.2531772660169112e-02  9.2767897648081243e-02  9.2998673746580093e-02  9.3205169542989588e-02  9.3339052430245623e-02  9.3353491204948125e-02  9.3243841737087926e-02  9.2873956943545680e-02  9.2184778385925731e-02  9.1567514130865960e-02  9.0519938391459984e-02  8.8645855470418519e-02  8.5978564736198734e-02  8.4693233640413201e-02  8.7330850956548162e-02  9.1228336019254508e-02  9.2972508552474631e-02  9.3287823479473703e-02  9.2362867320089942e-02  9.1593827825651786e-02  9.1086446654930223e-02  9.0788490130005547e-02  9.0619852218699795e-02  9.0509379884044394e-02  9.0413686538058646e-02  9.0313953350665416e-02  9.0206217951732420e-02  9.0093491743881565e-02  8.9981047802144443e-02  8.9874066253392823e-02  8.9776715739447455e-02  8.9692030293857902e-02  8.9622208924622651e-02  8.9569159647483410e-02  8.9535274258191008e-02  1.6473863924828333e-01  1.6457750169927823e-01  8.9439123516144720e-02  8.9440619170527480e-02  8.9442861188633982e-02  8.9445770491977869e-02  8.9449301722966695e-02  8.9453412314339939e-02  8.9458051908582401e-02  8.9463165881089435e-02  8.9468703134278516e-02  8.9474622542416907e-02  8.9480896085848485e-02  8.9487508530266560e-02  8.9494454067273285e-02  8.9501730357638892e-02  8.9509330422820638e-02  8.9517233115206124e-02  8.9525393661192415e-02  8.9533736606649303e-02  8.9542154053066828e-02  8.9550513194831677e-02  8.9558674777540384e-02  8.9566519888518978e-02  8.9573979793921232e-02  8.9581062700363978e-02  8.9587871921097212e-02  8.9594612352806607e-02  8.9601584776293000e-02  8.9609168272110018e-02  8.9617791823413145e-02  8.9627898752062285e-02  8.9639910346846319e-02  8.9654196050559243e-02  8.9671056221759193e-02  8.9690719717561762e-02  8.9713353677219096e-02  8.9739079427435017e-02  8.9767987728044854e-02  8.9800148103808125e-02  8.9835642365431678e-02  8.9874611213457078e-02  8.9917160100194460e-02  8.9963411251096123e-02  9.0013544654468966e-02  9.0067820577568514e-02  9.0126596508456683e-02  9.0190311230459799e-02  9.0259408745420447e-02  9.0334193357754763e-02  9.0414769614641760e-02  9.0501172851923412e-02  9.0593641967204430e-02  9.0693053011371844e-02  9.0801384859929224e-02  9.0921828509221730e-02  9.1057691988907258e-02  9.1211626271522919e-02  9.1386505594783632e-02  9.1586016665714476e-02  9.1814193457816246e-02  9.2073903571366120e-02  9.2367621110691300e-02  9.2697915310769638e-02  9.3069509054741345e-02  9.3473139629246763e-02  9.3813122877068181e-02  9.4018020132110858e-02  9.4000087960000658e-02  9.3191969701886146e-02  9.2097125568105911e-02  9.0080377961098079e-02  8.6305845168788795e-02  7.8733861018544224e-02  6.4515391082783452e-02  4.6181076022406245e-02  4.5732599723118106e-02  5.9320668808223599e-02  1.5097020294887653e-01  2.1301672807215877e-01  1.1573285238060159e-01  4.9385094254172410e-02  6.9463556584003022e-02  9.1542423735541834e-02  9.2798516269256962e-02  9.1785838030257499e-02  9.1094643849641388e-02  9.0729791386607375e-02  9.0567497428674371e-02  9.0489727606816672e-02  9.0426709412372630e-02  9.0351126085946282e-02  9.0258634832356022e-02  9.0154161755429840e-02  9.0044972073755614e-02  8.9937784235407936e-02  8.9837883339209765e-02  8.9749162733930146e-02  8.9674631982639461e-02  8.9617123075717939e-02  8.9579863540277443e-02  1.6481734414166468e-01  1.6457683651164862e-01  8.9441055215716977e-02  8.9442949713801956e-02  8.9445717931381022e-02  8.9449195121657457e-02  8.9453282317381255e-02  8.9457902965805622e-02  8.9462980901024308e-02  8.9468437334830106e-02  8.9474196827136879e-02  8.9480194695557708e-02  8.9486382134548320e-02  8.9492727772326697e-02  8.9499215462687756e-02  8.9505838424424611e-02  8.9512590047054294e-02  8.9519452236747996e-02  8.9526383514734062e-02  8.9533310320602508e-02  8.9540125658410685e-02  8.9546701942011572e-02  8.9552919699870448e-02  8.9558706243734368e-02  8.9564075220975550e-02  8.9569157974061606e-02  8.9574219551459305e-02  8.9579657099315674e-02  8.9585982149912771e-02  8.9593787748014284e-02  8.9603701770247277e-02  8.9616332164274198e-02  8.9632214072569050e-02  8.9651769835628586e-02  8.9675290151488424e-02  8.9702938123286266e-02  8.9734770108384085e-02  8.9770762969383244e-02  8.9810838102264284e-02  8.9854874555994571e-02  8.9902727880506086e-02  8.9954349482867527e-02  9.0009714045045403e-02  9.0068772510125197e-02  9.0131597788668527e-02  9.0198444274556394e-02  9.0269801283234447e-02  9.0346402097041617e-02  9.0429130530387772e-02  9.0518780524212902e-02  9.0616003743815857e-02  9.0721615312791576e-02  9.0837049638455861e-02  9.0964935831549340e-02  9.1109580613748603e-02  9.1277155512271391e-02  9.1473770154267040e-02  9.1704093633502209e-02  9.1973165700664480e-02  9.2288102557844795e-02  9.2659341474123483e-02  9.3107155514975157e-02  9.3609545245006032e-02  9.4051073071792668e-02  9.4336138744111023e-02  9.3887550913373335e-02  9.2514996739208141e-02  8.9705920184797033e-02  8.3480622890619097e-02  6.9299462275036222e-02  5.1602928513357141e-02  4.7411800485060093e-02  8.0130641088037163e-02  2.0955237652439412e-01  4.2201789085014352e-01  6.7392033638953475e-01  8.4222715158928396e-01  8.8670167258979082e-01  8.7956302771519923e-01  8.7391223291205744e-01  8.8049841403007867e-01  8.8468018046942698e-01  8.0420630841135099e-01  3.2718099078103041e-01  1.9552594713416480e-01  1.8027774267679658e-01  1.3086025938093251e-01  9.0659383827633666e-02  9.0525077768242396e-02  9.0491131808120615e-02  9.0460221614612341e-02  9.0401625725400808e-02  9.0315792725104080e-02  9.0212611834261505e-02  9.0102522979763358e-02  8.9993850280842363e-02  8.9892546548009586e-02  8.9802768357937823e-02  8.9727793769632719e-02  8.9670857323067288e-02  8.9634958585374527e-02  1.6491943167084430e-01  1.6457586514853575e-01  8.9443669812013973e-02  8.9445901572049555e-02  8.9449130385765990e-02  8.9453104416228155e-02  8.9457665843115278e-02  8.9462702916635231e-02  8.9468118386607093e-02  8.9473818749530795e-02  8.9479716311283153e-02  8.9485735785913040e-02  8.9491820290555787e-02  8.9497934258399497e-02  8.9504062195259027e-02  8.9510202745928122e-02  8.9516357931152951e-02  8.9522518309077731e-02  8.9528647152725321e-02  8.9534668532229772e-02  8.9540465038633707e-02  8.9545897877579717e-02  8.9550850575342691e-02  8.9555284176593003e-02  8.9559289282892030e-02  8.9563122202850315e-02  8.9567216433955127e-02  8.9572170093933923e-02  8.9578714480679680e-02  8.9587664390708643e-02  8.9599850653119026e-02  8.9616043291838282e-02  8.9636880516541645e-02  8.9662819580147657e-02  8.9694120595082596e-02  8.9730863195250671e-02  8.9772983478506319e-02  8.9820314487039796e-02  8.9872619619838418e-02  8.9929617787137706e-02  8.9991009286932835e-02  9.0056540905806823e-02  9.0126062368771229e-02  9.0199466133859693e-02  9.0276828298447603e-02  9.0358545698882534e-02  9.0445469566835038e-02  9.0538981384203174e-02  9.0640904535142106e-02  9.0753093832844633e-02  9.0877431424894309e-02  9.1016455718253564e-02  9.1174075637169422e-02  9.1356297382201343e-02  9.1571062102431364e-02  9.1827849381063018e-02  9.2135029935333762e-02  9.2501967059814755e-02  9.2956080083769432e-02  9.3501212926188071e-02  9.4009738966086373e-02  9.4382431840873054e-02  9.3874615872999084e-02  9.1770998022337763e-02  8.7264564228763483e-02  7.6454673265028028e-02  6.0793061681512064e-02  5.2804772723769204e-02  1.3312292398626591e-01  3.3503408916938804e-01  6.2858884980943230e-01  8.2600599993276713e-01  8.8325579025999157e-01  8.7690497830153769e-01  8.6317542273421644e-01  8.5075434685754192e-01  8.4179798087962754e-01  8.3039619816817867e-01  8.1588762559271177e-01  8.1370525630874146e-01  8.2634975003955791e-01  8.4752695658889332e-01  8.8592508691687588e-01  8.1509377291080931e-01  6.3113653840208150e-01  5.5301325573625471e-01  5.2595891246854443e-01  1.6910693584381342e-01  9.0468106800029119e-02  9.0504009297669719e-02  9.0508715803201661e-02  9.0460349271977381e-02  9.0372496022060878e-02  9.0263848239689512e-02  9.0149108271712408e-02  9.0038072927486501e-02  8.9936851163709586e-02  8.9849326015127448e-02  8.9778613109699271e-02  8.9727918190139325e-02  8.9698918233658401e-02  1.6504268537581687e-01  1.6457452638346204e-01  8.9447092937748912e-02  8.9449534751539120e-02  8.9453089332274707e-02  8.9457430865327772e-02  8.9462341137849108e-02  8.9467670574487998e-02  8.9473302021855619e-02  8.9479132925530919e-02  8.9485072408010319e-02  8.9491045571200176e-02  8.9496999112830600e-02  8.9502904765630914e-02  8.9508758552546488e-02  8.9514574447361800e-02  8.9520371468954099e-02  8.9526154386783713e-02  8.9531892192727960e-02  8.9537500734083980e-02  8.9542836796225933e-02  8.9547728853183170e-02  8.95520434759