<?xml version="1.0"?>
<VTKFile type="UnstructuredGrid"  version="0.1"  >
<UnstructuredGrid>
<Piece  NumberOfPoints="5151" NumberOfCells="10000">
<Points>
<DataArray  type="Float64"  NumberOfComponents="3"  format="ascii">0 0 0  0.02 0 0  0.04 0 0  0.06 0 0  0.08 0 0  0.1 0 0  0.12 0 0  0.14 0 0  0.16 0 0  0.18 0 0  0.2 0 0  0.22 0 0  0.24 0 0  0.26 0 0  0.28 0 0  0.3 0 0  0.32 0 0  0.34 0 0  0.36 0 0  0.38 0 0  0.4 0 0  0.42 0 0  0.44 0 0  0.46 0 0  0.48 0 0  0.5 0 0  0.52 0 0  0.54 0 0  0.5600000000000001 0 0  0.58 0 0  0.6 0 0  0.62 0 0  0.64 0 0  0.66 0 0  0.68 0 0  0.7 0 0  0.72 0 0  0.74 0 0  0.76 0 0  0.78 0 0  0.8 0 0  0.82 0 0  0.84 0 0  0.86 0 0  0.88 0 0  0.9 0 0  0.92 0 0  0.9399999999999999 0 0  0.96 0 0  0.98 0 0  1 0 0  1.02 0 0  1.04 0 0  1.06 0 0  1.08 0 0  1.1 0 0  1.12 0 0  1.14 0 0  1.16 0 0  1.18 0 0  1.2 0 0  1.22 0 0  1.24 0 0  1.26 0 0  1.28 0 0  1.3 0 0  1.32 0 0  1.34 0 0  1.36 0 0  1.38 0 0  1.4 0 0  1.42 0 0  1.44 0 0  1.46 0 0  1.48 0 0  1.5 0 0  1.52 0 0  1.54 0 0  1.56 0 0  1.58 0 0  1.6 0 0  1.62 0 0  1.64 0 0  1.66 0 0  1.68 0 0  1.7 0 0  1.72 0 0  1.74 0 0  1.76 0 0  1.78 0 0  1.8 0 0  1.82 0 0  1.84 0 0  1.86 0 0  1.88 0 0  1.9 0 0  1.92 0 0  1.94 0 0  1.96 0 0  1.98 0 0  2 0 0  0 0.02 0  0.02 0.02 0  0.04 0.02 0  0.06 0.02 0  0.08 0.02 0  0.1 0.02 0  0.12 0.02 0  0.14 0.02 0  0.16 0.02 0  0.18 0.02 0  0.2 0.02 0  0.22 0.02 0  0.24 0.02 0  0.26 0.02 0  0.28 0.02 0  0.3 0.02 0  0.32 0.02 0  0.34 0.02 0  0.36 0.02 0  0.38 0.02 0  0.4 0.02 0  0.42 0.02 0  0.44 0.02 0  0.46 0.02 0  0.48 0.02 0  0.5 0.02 0  0.52 0.02 0  0.54 0.02 0  0.5600000000000001 0.02 0  0.58 0.02 0  0.6 0.02 0  0.62 0.02 0  0.64 0.02 0  0.66 0.02 0  0.68 0.02 0  0.7 0.02 0  0.72 0.02 0  0.74 0.02 0  0.76 0.02 0  0.78 0.02 0  0.8 0.02 0  0.82 0.02 0  0.84 0.02 0  0.86 0.02 0  0.88 0.02 0  0.9 0.02 0  0.92 0.02 0  0.9399999999999999 0.02 0  0.96 0.02 0  0.98 0.02 0  1 0.02 0  1.02 0.02 0  1.04 0.02 0  1.06 0.02 0  1.08 0.02 0  1.1 0.02 0  1.12 0.02 0  1.14 0.02 0  1.16 0.02 0  1.18 0.02 0  1.2 0.02 0  1.22 0.02 0  1.24 0.02 0  1.26 0.02 0  1.28 0.02 0  1.3 0.02 0  1.32 0.02 0  1.34 0.02 0  1.36 0.02 0  1.38 0.02 0  1.4 0.02 0  1.42 0.02 0  1.44 0.02 0  1.46 0.02 0  1.48 0.02 0  1.5 0.02 0  1.52 0.02 0  1.54 0.02 0  1.56 0.02 0  1.58 0.02 0  1.6 0.02 0  1.62 0.02 0  1.64 0.02 0  1.66 0.02 0  1.68 0.02 0  1.7 0.02 0  1.72 0.02 0  1.74 0.02 0  1.76 0.02 0  1.78 0.02 0  1.8 0.02 0  1.82 0.02 0  1.84 0.02 0  1.86 0.02 0  1.88 0.02 0  1.9 0.02 0  1.92 0.02 0  1.94 0.02 0  1.96 0.02 0  1.98 0.02 0  2 0.02 0  0 0.04 0  0.02 0.04 0  0.04 0.04 0  0.06 0.04 0  0.08 0.04 0  0.1 0.04 0  0.12 0.04 0  0.14 0.04 0  0.16 0.04 0  0.18 0.04 0  0.2 0.04 0  0.22 0.04 0  0.24 0.04 0  0.26 0.04 0  0.28 0.04 0  0.3 0.04 0  0.32 0.04 0  0.34 0.04 0  0.36 0.04 0  0.38 0.04 0  0.4 0.04 0  0.42 0.04 0  0.44 0.04 0  0.46 0.04 0  0.48 0.04 0  0.5 0.04 0  0.52 0.04 0  0.54 0.04 0  0.5600000000000001 0.04 0  0.58 0.04 0  0.6 0.04 0  0.62 0.04 0  0.64 0.04 0  0.66 0.04 0  0.68 0.04 0  0.7 0.04 0  0.72 0.04 0  0.74 0.04 0  0.76 0.04 0  0.78 0.04 0  0.8 0.04 0  0.82 0.04 0  0.84 0.04 0  0.86 0.04 0  0.88 0.04 0  0.9 0.04 0  0.92 0.04 0  0.9399999999999999 0.04 0  0.96 0.04 0  0.98 0.04 0  1 0.04 0  1.02 0.04 0  1.04 0.04 0  1.06 0.04 0  1.08 0.04 0  1.1 0.04 0  1.12 0.04 0  1.14 0.04 0  1.16 0.04 0  1.18 0.04 0  1.2 0.04 0  1.22 0.04 0  1.24 0.04 0  1.26 0.04 0  1.28 0.04 0  1.3 0.04 0  1.32 0.04 0  1.34 0.04 0  1.36 0.04 0  1.38 0.04 0  1.4 0.04 0  1.42 0.04 0  1.44 0.04 0  1.46 0.04 0  1.48 0.04 0  1.5 0.04 0  1.52 0.04 0  1.54 0.04 0  1.56 0.04 0  1.58 0.04 0  1.6 0.04 0  1.62 0.04 0  1.64 0.04 0  1.66 0.04 0  1.68 0.04 0  1.7 0.04 0  1.72 0.04 0  1.74 0.04 0  1.76 0.04 0  1.78 0.04 0  1.8 0.04 0  1.82 0.04 0  1.84 0.04 0  1.86 0.04 0  1.88 0.04 0  1.9 0.04 0  1.92 0.04 0  1.94 0.04 0  1.96 0.04 0  1.98 0.04 0  2 0.04 0  0 0.06 0  0.02 0.06 0  0.04 0.06 0  0.06 0.06 0  0.08 0.06 0  0.1 0.06 0  0.12 0.06 0  0.14 0.06 0  0.16 0.06 0  0.18 0.06 0  0.2 0.06 0  0.22 0.06 0  0.24 0.06 0  0.26 0.06 0  0.28 0.06 0  0.3 0.06 0  0.32 0.06 0  0.34 0.06 0  0.36 0.06 0  0.38 0.06 0  0.4 0.06 0  0.42 0.06 0  0.44 0.06 0  0.46 0.06 0  0.48 0.06 0  0.5 0.06 0  0.52 0.06 0  0.54 0.06 0  0.5600000000000001 0.06 0  0.58 0.06 0  0.6 0.06 0  0.62 0.06 0  0.64 0.06 0  0.66 0.06 0  0.68 0.06 0  0.7 0.06 0  0.72 0.06 0  0.74 0.06 0  0.76 0.06 0  0.78 0.06 0  0.8 0.06 0  0.82 0.06 0  0.84 0.06 0  0.86 0.06 0  0.88 0.06 0  0.9 0.06 0  0.92 0.06 0  0.9399999999999999 0.06 0  0.96 0.06 0  0.98 0.06 0  1 0.06 0  1.02 0.06 0  1.04 0.06 0  1.06 0.06 0  1.08 0.06 0  1.1 0.06 0  1.12 0.06 0  1.14 0.06 0  1.16 0.06 0  1.18 0.06 0  1.2 0.06 0  1.22 0.06 0  1.24 0.06 0  1.26 0.06 0  1.28 0.06 0  1.3 0.06 0  1.32 0.06 0  1.34 0.06 0  1.36 0.06 0  1.38 0.06 0  1.4 0.06 0  1.42 0.06 0  1.44 0.06 0  1.46 0.06 0  1.48 0.06 0  1.5 0.06 0  1.52 0.06 0  1.54 0.06 0  1.56 0.06 0  1.58 0.06 0  1.6 0.06 0  1.62 0.06 0  1.64 0.06 0  1.66 0.06 0  1.68 0.06 0  1.7 0.06 0  1.72 0.06 0  1.74 0.06 0  1.76 0.06 0  1.78 0.06 0  1.8 0.06 0  1.82 0.06 0  1.84 0.06 0  1.86 0.06 0  1.88 0.06 0  1.9 0.06 0  1.92 0.06 0  1.94 0.06 0  1.96 0.06 0  1.98 0.06 0  2 0.06 0  0 0.08 0  0.02 0.08 0  0.04 0.08 0  0.06 0.08 0  0.08 0.08 0  0.1 0.08 0  0.12 0.08 0  0.14 0.08 0  0.16 0.08 0  0.18 0.08 0  0.2 0.08 0  0.22 0.08 0  0.24 0.08 0  0.26 0.08 0  0.28 0.08 0  0.3 0.08 0  0.32 0.08 0  0.34 0.08 0  0.36 0.08 0  0.38 0.08 0  0.4 0.08 0  0.42 0.08 0  0.44 0.08 0  0.46 0.08 0  0.48 0.08 0  0.5 0.08 0  0.52 0.08 0  0.54 0.08 0  0.5600000000000001 0.08 0  0.58 0.08 0  0.6 0.08 0  0.62 0.08 0  0.64 0.08 0  0.66 0.08 0  0.68 0.08 0  0.7 0.08 0  0.72 0.08 0  0.74 0.08 0  0.76 0.08 0  0.78 0.08 0  0.8 0.08 0  0.82 0.08 0  0.84 0.08 0  0.86 0.08 0  0.88 0.08 0  0.9 0.08 0  0.92 0.08 0  0.9399999999999999 0.08 0  0.96 0.08 0  0.98 0.08 0  1 0.08 0  1.02 0.08 0  1.04 0.08 0  1.06 0.08 0  1.08 0.08 0  1.1 0.08 0  1.12 0.08 0  1.14 0.08 0  1.16 0.08 0  1.18 0.08 0  1.2 0.08 0  1.22 0.08 0  1.24 0.08 0  1.26 0.08 0  1.28 0.08 0  1.3 0.08 0  1.32 0.08 0  1.34 0.08 0  1.36 0.08 0  1.38 0.08 0  1.4 0.08 0  1.42 0.08 0  1.44 0.08 0  1.46 0.08 0  1.48 0.08 0  1.5 0.08 0  1.52 0.08 0  1.54 0.08 0  1.56 0.08 0  1.58 0.08 0  1.6 0.08 0  1.62 0.08 0  1.64 0.08 0  1.66 0.08 0  1.68 0.08 0  1.7 0.08 0  1.72 0.08 0  1.74 0.08 0  1.76 0.08 0  1.78 0.08 0  1.8 0.08 0  1.82 0.08 0  1.84 0.08 0  1.86 0.08 0  1.88 0.08 0  1.9 0.08 0  1.92 0.08 0  1.94 0.08 0  1.96 0.08 0  1.98 0.08 0  2 0.08 0  0 0.1 0  0.02 0.1 0  0.04 0.1 0  0.06 0.1 0  0.08 0.1 0  0.1 0.1 0  0.12 0.1 0  0.14 0.1 0  0.16 0.1 0  0.18 0.1 0  0.2 0.1 0  0.22 0.1 0  0.24 0.1 0  0.26 0.1 0  0.28 0.1 0  0.3 0.1 0  0.32 0.1 0  0.34 0.1 0  0.36 0.1 0  0.38 0.1 0  0.4 0.1 0  0.42 0.1 0  0.44 0.1 0  0.46 0.1 0  0.48 0.1 0  0.5 0.1 0  0.52 0.1 0  0.54 0.1 0  0.5600000000000001 0.1 0  0.58 0.1 0  0.6 0.1 0  0.62 0.1 0  0.64 0.1 0  0.66 0.1 0  0.68 0.1 0  0.7 0.1 0  0.72 0.1 0  0.74 0.1 0  0.76 0.1 0  0.78 0.1 0  0.8 0.1 0  0.82 0.1 0  0.84 0.1 0  0.86 0.1 0  0.88 0.1 0  0.9 0.1 0  0.92 0.1 0  0.9399999999999999 0.1 0  0.96 0.1 0  0.98 0.1 0  1 0.1 0  1.02 0.1 0  1.04 0.1 0  1.06 0.1 0  1.08 0.1 0  1.1 0.1 0  1.12 0.1 0  1.14 0.1 0  1.16 0.1 0  1.18 0.1 0  1.2 0.1 0  1.22 0.1 0  1.24 0.1 0  1.26 0.1 0  1.28 0.1 0  1.3 0.1 0  1.32 0.1 0  1.34 0.1 0  1.36 0.1 0  1.38 0.1 0  1.4 0.1 0  1.42 0.1 0  1.44 0.1 0  1.46 0.1 0  1.48 0.1 0  1.5 0.1 0  1.52 0.1 0  1.54 0.1 0  1.56 0.1 0  1.58 0.1 0  1.6 0.1 0  1.62 0.1 0  1.64 0.1 0  1.66 0.1 0  1.68 0.1 0  1.7 0.1 0  1.72 0.1 0  1.74 0.1 0  1.76 0.1 0  1.78 0.1 0  1.8 0.1 0  1.82 0.1 0  1.84 0.1 0  1.86 0.1 0  1.88 0.1 0  1.9 0.1 0  1.92 0.1 0  1.94 0.1 0  1.96 0.1 0  1.98 0.1 0  2 0.1 0  0 0.12 0  0.02 0.12 0  0.04 0.12 0  0.06 0.12 0  0.08 0.12 0  0.1 0.12 0  0.12 0.12 0  0.14 0.12 0  0.16 0.12 0  0.18 0.12 0  0.2 0.12 0  0.22 0.12 0  0.24 0.12 0  0.26 0.12 0  0.28 0.12 0  0.3 0.12 0  0.32 0.12 0  0.34 0.12 0  0.36 0.12 0  0.38 0.12 0  0.4 0.12 0  0.42 0.12 0  0.44 0.12 0  0.46 0.12 0  0.48 0.12 0  0.5 0.12 0  0.52 0.12 0  0.54 0.12 0  0.5600000000000001 0.12 0  0.58 0.12 0  0.6 0.12 0  0.62 0.12 0  0.64 0.12 0  0.66 0.12 0  0.68 0.12 0  0.7 0.12 0  0.72 0.12 0  0.74 0.12 0  0.76 0.12 0  0.78 0.12 0  0.8 0.12 0  0.82 0.12 0  0.84 0.12 0  0.86 0.12 0  0.88 0.12 0  0.9 0.12 0  0.92 0.12 0  0.9399999999999999 0.12 0  0.96 0.12 0  0.98 0.12 0  1 0.12 0  1.02 0.12 0  1.04 0.12 0  1.06 0.12 0  1.08 0.12 0  1.1 0.12 0  1.12 0.12 0  1.14 0.12 0  1.16 0.12 0  1.18 0.12 0  1.2 0.12 0  1.22 0.12 0  1.24 0.12 0  1.26 0.12 0  1.28 0.12 0  1.3 0.12 0  1.32 0.12 0  1.34 0.12 0  1.36 0.12 0  1.38 0.12 0  1.4 0.12 0  1.42 0.12 0  1.44 0.12 0  1.46 0.12 0  1.48 0.12 0  1.5 0.12 0  1.52 0.12 0  1.54 0.12 0  1.56 0.12 0  1.58 0.12 0  1.6 0.12 0  1.62 0.12 0  1.64 0.12 0  1.66 0.12 0  1.68 0.12 0  1.7 0.12 0  1.72 0.12 0  1.74 0.12 0  1.76 0.12 0  1.78 0.12 0  1.8 0.12 0  1.82 0.12 0  1.84 0.12 0  1.86 0.12 0  1.88 0.12 0  1.9 0.12 0  1.92 0.12 0  1.94 0.12 0  1.96 0.12 0  1.98 0.12 0  2 0.12 0  0 0.14 0  0.02 0.14 0  0.04 0.14 0  0.06 0.14 0  0.08 0.14 0  0.1 0.14 0  0.12 0.14 0  0.14 0.14 0  0.16 0.14 0  0.18 0.14 0  0.2 0.14 0  0.22 0.14 0  0.24 0.14 0  0.26 0.14 0  0.28 0.14 0  0.3 0.14 0  0.32 0.14 0  0.34 0.14 0  0.36 0.14 0  0.38 0.14 0  0.4 0.14 0  0.42 0.14 0  0.44 0.14 0  0.46 0.14 0  0.48 0.14 0  0.5 0.14 0  0.52 0.14 0  0.54 0.14 0  0.5600000000000001 0.14 0  0.58 0.14 0  0.6 0.14 0  0.62 0.14 0  0.64 0.14 0  0.66 0.14 0  0.68 0.14 0  0.7 0.14 0  0.72 0.14 0  0.74 0.14 0  0.76 0.14 0  0.78 0.14 0  0.8 0.14 0  0.82 0.14 0  0.84 0.14 0  0.86 0.14 0  0.88 0.14 0  0.9 0.14 0  0.92 0.14 0  0.9399999999999999 0.14 0  0.96 0.14 0  0.98 0.14 0  1 0.14 0  1.02 0.14 0  1.04 0.14 0  1.06 0.14 0  1.08 0.14 0  1.1 0.14 0  1.12 0.14 0  1.14 0.14 0  1.16 0.14 0  1.18 0.14 0  1.2 0.14 0  1.22 0.14 0  1.24 0.14 0  1.26 0.14 0  1.28 0.14 0  1.3 0.14 0  1.32 0.14 0  1.34 0.14 0  1.36 0.14 0  1.38 0.14 0  1.4 0.14 0  1.42 0.14 0  1.44 0.14 0  1.46 0.14 0  1.48 0.14 0  1
[...]
<PointData  Scalars="sols[i]"> 
<DataArray  type="Float64"  Name="sols[i]"  format="ascii">2.3035288716975066e-01  1.6220008269844041e-01  1.6220001646118970e-01  1.6219989331404056e-01  1.6219968667000204e-01  1.6219935788970224e-01  1.6219885343822185e-01  1.6219810432987256e-01  1.6219702763159694e-01  1.6219552909971369e-01  1.6219350614666023e-01  1.6219085054417839e-01  1.6218745035015447e-01  1.6218319052812669e-01  1.6217795170091834e-01  1.6217160651693993e-01  1.6216401324568547e-01  1.6215500645072370e-01  1.6214438491619224e-01  1.6213189743614811e-01  1.6211722758275707e-01  1.6209997936547149e-01  1.6207966697452161e-01  1.6205571372339103e-01  1.6202746475351154e-01  1.6199421918240933e-01  1.6195528467122564e-01  1.6191005335860639e-01  1.6185809491247111e-01  1.6179925910131204e-01  1.6173377780648623e-01  1.6166235488483716e-01  1.6158623192197152e-01  1.6150721904214160e-01  1.6142768293364487e-01  1.6135048899654586e-01  1.6127889972071677e-01  1.6121643931538349e-01  1.6116675480754358e-01  1.6113344907271682e-01  1.6111990044006538e-01  1.6112914422493704e-01  1.6116375524007559e-01  1.6122575596063768e-01  1.6131655045735874e-01  1.6143687645867694e-01  1.6158676784702830e-01  1.6176552425510626e-01  1.6197169496791974e-01  1.6220310067660162e-01  1.6245692144802612e-01  1.6272986180546414e-01  1.6301836562730876e-01  1.6331879953918996e-01  1.6362749017592840e-01  1.6394055292442375e-01  1.6425368016718506e-01  1.6456218894195337e-01  1.6486139515337273e-01  1.6514702484360383e-01  1.6541524756051001e-01  1.6566254652511628e-01  1.6588589681570418e-01  1.6608276565358129e-01  1.6625083648463071e-01  1.6638871619721560e-01  1.6649776597930885e-01  1.6658309758475454e-01  1.6665269458798010e-01  1.6671674423679003e-01  1.6678926555596887e-01  1.6689084400979959e-01  1.6704921515110979e-01  1.6729548626669091e-01  1.6765594607800585e-01  1.6814027435990028e-01  1.6872657561435833e-01  1.6934575227420434e-01  1.6987684355436508e-01  1.7017810203694919e-01  1.7015125935793732e-01  1.6979166034863030e-01  1.6919215064779092e-01  1.6848331255774945e-01  1.6776283492067551e-01  1.6707256048856392e-01  1.6641636864156792e-01  1.6578693400346897e-01  1.6518265704508739e-01  1.6461207639785425e-01  1.6408995768093596e-01  1.6363093965320083e-01  1.6324476739840998e-01  1.6293437328279453e-01  1.6269629149751103e-01  1.6252235142987742e-01  1.6240177028475097e-01  1.6232314445685980e-01  1.6227616018275165e-01  1.6225302305918515e-01  3.4402449824812104e-01  1.6220007847232501e-01  8.3976020658103223e-02  8.3976382618607445e-02  8.3977045742057013e-02  8.3978105261621194e-02  8.3979679513744424e-02  8.3981910998004616e-02  8.3984963083570063e-02  8.3989012543042696e-02  8.3994240432554504e-02  8.4000823311784767e-02  8.4008925745198748e-02  8.4018694177734790e-02  8.4030251718092558e-02  8.4043693046984405e-02  8.4059078568805790e-02  8.4076427050411170e-02  8.4095706363126396e-02  8.4116822554151358e-02  8.4139608251358661e-02  8.4163812236739854e-02  8.4189092599730786e-02  8.4215015953353164e-02  8.4241064767749202e-02  8.4266653777883255e-02  8.4291155597988610e-02  8.4313934532430121e-02  8.4334386176699611e-02  8.4351979762015167e-02  8.4366299479658208e-02  8.4377080852971506e-02  8.4384238763794722e-02  8.4387884838131255e-02  8.4388333215908357e-02  8.4386094884120078e-02  8.4381861471153452e-02  8.4376479584475667e-02  8.4370916561679582e-02  8.4366221299317923e-02  8.4363489250229837e-02  8.4363814148669433e-02  8.4368240401742928e-02  8.4377728256242207e-02  8.4393125187079795e-02  8.4415146755183454e-02  8.4444364861468377e-02  8.4481198721678821e-02  8.4525902892853680e-02  8.4578549541634712e-02  8.4639011953830556e-02  8.4706964953296590e-02  8.4781917402025647e-02  8.4863279516273898e-02  8.4950437384741992e-02  8.5042776536030346e-02  8.5139601976182949e-02  8.5240022884398359e-02  8.5342956285995392e-02  8.5447289575395435e-02  8.5552056075460722e-02  8.5656389499713839e-02  8.5759418825605616e-02  8.5860395870409917e-02  8.5958663219851933e-02  8.6053313003628465e-02  8.6143286245352238e-02  8.6228178714339188e-02  8.6308916683625628e-02  8.6387624604066293e-02  8.6467414533030293e-02  8.6553068764173277e-02  8.6652478688961102e-02  8.6777580273237578e-02  8.6943787910725670e-02  8.7166856268406478e-02  8.7455821591373523e-02  8.7801954574777269e-02  8.8166255402129926e-02  8.8473811041241510e-02  8.8633315902801893e-02  8.8580854023273398e-02  8.8315476791197015e-02  8.7905072217463132e-02  8.7444479975133327e-02  8.7002447639441552e-02  8.6605208294043709e-02  8.6249612881282092e-02  8.5922743376957586e-02  8.5614808002924828e-02  8.5323654602689439e-02  8.5053373479130084e-02  8.4810566321059627e-02  8.4600974905194470e-02  8.4427597317657338e-02  8.4290275056991659e-02  8.4186244068864949e-02  8.4111105939515290e-02  8.4059832596286521e-02  8.4027613039078894e-02  8.4010526115115072e-02  1.6225209118791775e-01  1.6219999806188073e-01  8.3976381305359546e-02  8.3976930918957957e-02  8.3977892894070066e-02  8.3979348400617951e-02  8.3981383383850500e-02  8.3984089012320351e-02  8.3987565131731765e-02  8.3991920891255956e-02  8.3997271936179077e-02  8.4003735514582414e-02  8.4011424802406087e-02  8.4020443147962379e-02  8.4030878351524965e-02  8.4042796700198527e-02  8.4056236317760435e-02  8.4071199481918796e-02  8.4087643917784366e-02  8.4105473640844114e-02  8.4124530580035731e-02  8.4144588858077643e-02  8.4165353778016441e-02  8.4186467078466276e-02  8.4207519129501016e-02  8.4228067700965067e-02  8.4247662032292031e-02  8.4265870458836489e-02  8.4282309332652378e-02  8.4296670916273575e-02  8.4308747855248264e-02  8.4318452201671945e-02  8.4325827814889093e-02  8.4331055968186283e-02  8.4334454757321931e-02  8.4336473166627263e-02  8.4337680401753559e-02  8.4338750613824884e-02  8.4340442672245663e-02  8.4343574695802406e-02  8.4348998413140544e-02  8.4357574847705022e-02  8.4370139051337265e-02  8.4387470489991540e-02  8.4410272504128039e-02  8.4439158517277069e-02  8.4474640939595239e-02  8.4517117626351071e-02  8.4566850573313396e-02  8.4623936406656899e-02  8.4688285083161813e-02  8.4759631661461290e-02  8.4837598195828368e-02  8.4921804917400631e-02  8.5011983320607568e-02  8.5107996926430604e-02  8.5209684986693207e-02  8.5316687028436589e-02  8.5428515428563986e-02  8.5544875479905191e-02  8.5665930558459197e-02  8.5792046837928224e-02  8.5923455053578346e-02  8.6060519062718902e-02  8.6203793143916158e-02  8.6353369926531698e-02  8.6508438104888855e-02  8.6667723020687468e-02  8.6830548866636575e-02  8.6997666874120291e-02  8.7171511396507112e-02  8.7356459557491634e-02  8.7560228868578255e-02  8.7795223787635809e-02  8.8079315301081249e-02  8.8433892374278164e-02  8.8872115261443382e-02  8.9375546053596766e-02  8.9867237767354780e-02  9.0203170270127059e-02  9.0226935065902431e-02  8.9864212318805856e-02  8.9171347596022396e-02  8.8324664019029428e-02  8.7518874044098999e-02  8.6860099518074732e-02  8.6361210962861812e-02  8.5986043042099933e-02  8.5689298412578246e-02  8.5435923158227761e-02  8.5206099982814837e-02  8.4992610489530301e-02  8.4795723529278874e-02  8.4618631459186744e-02  8.4464482408033711e-02  8.4334989253585485e-02  8.4230178544765777e-02  8.4148768836391580e-02  8.4088762879270196e-02  8.4048023546156453e-02  8.4024854937243237e-02  1.6227097199273899e-01  1.6219984185583283e-01  8.3977040771895953e-02  8.3977888271832654e-02  8.3979286304012371e-02  8.3981283915696064e-02  8.3983927827973703e-02  8.3987256535670185e-02  8.3991305219719856e-02  8.3996112383767571e-02  8.4001723417244642e-02  8.4008190507034855e-02  8.4015569825910782e-02  8.4023916993883715e-02  8.4033281415097555e-02  8.4043699700771884e-02  8.4055188193334504e-02  8.4067734688253806e-02  8.4081289836239248e-02  8.4095759281259896e-02  8.4110998168080958e-02  8.4126810203088834e-02  8.4142953087596700e-02  8.4159150834510199e-02  8.4175111977422015e-02  8.4190551509624845e-02  8.4205213772073281e-02  8.4218893618426022e-02  8.4231453765216499e-02  8.4242836849121899e-02  8.4253071182047376e-02  8.4262270235439543e-02  8.4270627215018448e-02  8.4278407085768184e-02  8.4285938580014097e-02  8.4293607882560545e-02  8.4301854172023405e-02  8.4311165822365586e-02  8.4322075427071846e-02  8.4335150301344475e-02  8.4350980543294193e-02  8.4370171650970313e-02  8.4393324894749697e-02  8.4421019000342420e-02  8.4453799684733419e-02  8.4492175318483340e-02  8.4536610513295293e-02  8.4587509440594746e-02  8.4645181898782465e-02  8.4709793768722799e-02  8.4781338392494729e-02  8.4859672014678381e-02  8.4944633128261338e-02  8.5036245789441398e-02  8.5134925661255079e-02  8.5241517985866072e-02  8.5356993974837259e-02  8.5482157288667954e-02  8.5617833733528048e-02  8.5765437909377434e-02  8.5927451540505420e-02  8.6106868467374587e-02  8.6306327916084113e-02  8.6528319233443063e-02  8.6775431554616630e-02  8.7049852936700978e-02  8.7352016618467573e-02  8.7679252078133374e-02  8.8026661502879702e-02  8.8390487534030726e-02  8.8770917624819465e-02  8.9172198143271833e-02  8.9605508953909910e-02  9.0091573160982291e-02  9.0658993448635705e-02  9.1336145532836893e-02  9.2129471995691686e-02  9.2985745049512944e-02  9.3753725151543663e-02  9.4196167810997405e-02  9.4069194432117281e-02  9.3174407821126723e-02  9.1557289716746454e-02  8.9716151927292764e-02  8.8154212934642318e-02  8.7016411113941122e-02  8.6273034552127620e-02  8.5810532697059433e-02  8.5514816980124086e-02  8.5303228553788232e-02  8.5127486303392050e-02  8.4965175749420530e-02  8.4809407074909152e-02  8.4660889439192033e-02  8.4523005035507040e-02  8.4399229274990564e-02  8.4292101461723792e-02  8.4203085806390549e-02  8.4132857215149862e-02  8.4081777648186584e-02  8.4050619517454808e-02  1.6230794073602067e-01  1.6219956923245213e-01  8.3978090796105756e-02  8.3979330184957554e-02  8.3981266237031810e-02  8.3983890831798150e-02  8.3987205382828681e-02  8.3991202169231130e-02  8.3995863531624790e-02  8.4001169681356902e-02  8.4007106447326063e-02  8.4013669552483919e-02  8.4020865087544833e-02  8.4028706892273791e-02  8.4037211597718584e-02  8.4046391835977161e-02  8.4056247976966703e-02  8.4066758895590940e-02  8.4077872799065825e-02  8.4089499826357342e-02  8.4101508697732655e-02  8.4113730357842573e-02  8.4125970372253167e-02  8.4138029248269061e-02  8.4149727612920652e-02  8.4160931959466848e-02  8.4171576507578061e-02  8.4181677845098044e-02  8.4191340686814678e-02  8.4200754157825866e-02  8.4210178850394890e-02  8.4219926702033168e-02  8.4230337761003804e-02  8.4241758965341418e-02  8.4254529532573633e-02  8.4268975316666592e-02  8.4285411309784966e-02  8.4304148949127217e-02  8.4325504387745984e-02  8.4349804946948020e-02  8.4377399331751771e-02  8.4408659161918115e-02  8.4443959617684403e-02  8.4483687399431961e-02  8.4528248167051331e-02  8.4578078942809859e-02  8.4633654470582811e-02  8.4695472776886369e-02  8.4764006823181234e-02  8.4839623809173662e-02  8.4922552121919875e-02  8.5012969251544473e-02  8.5111220719537695e-02  8.5218181546753244e-02  8.5335638808148928e-02  8.5466392452338100e-02  8.5613682764369675e-02  8.5780742574138882e-02  8.5971268276186300e-02  8.6190206256235524e-02  8.6444363041980818e-02  8.6741583442671841e-02  8.7089381308169247e-02  8.7494086735864077e-02  8.7960239898852349e-02  8.8492277701747488e-02  8.9094229579223722e-02  8.9766596174091162e-02  9.0506283863326806e-02  9.1295468854783207e-02  9.2083934534085005e-02  9.2825700905178055e-02  9.3522977420912701e-02  9.4032608087457989e-02  9.4307759088304202e-02  9.4823217609844926e-02  9.5041065460232915e-02  9.4429066336750467e-02  9.2679467341394026e-02  9.1667344194514153e-02  9.3796234804883125e-02  9.6007203900859150e-02  9.5046204439273918e-02  9.2634998066570023e-02  8.9630025107588926e-02  8.7595574738263668e-02  8.6406512673412234e-02  8.5767332941620256e-02  8.5434566451702873e-02  8.5244520442009919e-02  8.5106801918258174e-02  8.4980673486633990e-02  8.4852768329819750e-02  8.4722493082125302e-02  8.4594018700911697e-02  8.4472398518943920e-02  8.4361984593616698e-02  8.4266045447209267e-02  8.4186995007288823e-02  8.4126956370243505e-02  8.4088613740811391e-02  1.6236587685973738e-01  1.6219912422810673e-01  8.3979642337443705e-02  8.3981331294810377e-02  8.3983863074614071e-02  8.3987148368844952e-02  8.3991135911116011e-02  8.3995777554935716e-02  8.4001016341719539e-02  8.4006790493795891e-02  8.4013042226675133e-02  8.4019725033622275e-02  8.4026807228056485e-02  8.4034271581383754e-02  8.4042111527067476e-02  8.4050324430418738e-02  8.4058902428692892e-02  8.4067821668211751e-02  8.4077031627578513e-02  8.4086447159324548e-02  8.4095946513255304e-02  8.4105379869939073e-02  8.4114590214051446e-02  8.4123443626511932e-02  8.4131863028171466e-02  8.4139858459836556e-02  8.4147547659839519e-02  8.4155163436198263e-02  8.4163047274617278e-02  8.4171629506647513e-02  8.4181397251503101e-02  8.4192854257879077e-02  8.4206479843487517e-02  8.4222695280077378e-02  8.4241844462810411e-02  8.4264191465781499e-02  8.4289932104219131e-02  8.4319212722674841e-02  8.4352148645589597e-02  8.4388836497591213e-02  8.4429395378118680e-02  8.4474023031806983e-02  8.4522891777577699e-02  8.4576216844176710e-02  8.4634308491854063e-02  8.4697609878624736e-02  8.4766732802031577e-02  8.4842460514900769e-02  8.4925689783519234e-02  8.5017304884388314e-02  8.5118159130607746e-02  8.5229285312264244e-02  8.5352283200906959e-02  8.5489907859899336e-02  8.5646716516259616e-02  8.5829340672277946e-02  8.6045431636102135e-02  8.6302997154560523e-02  8.6611621663469501e-02  8.6983354315501596e-02  8.7432401837930954e-02  8.7973576567925357e-02  8.8623179052019010e-02  8.9399514297615792e-02  9.0324743629349474e-02  9.1405937255649619e-02  9.2554279653266153e-02  9.3707861519477076e-02  9.4781097372389544e-02  9.5144882866264713e-02  9.5362191088985568e-02  9.4730072296421192e-02  9.2294970279467009e-02  8.5596149078826622e-02  7.0357884990068897e-02  4.0085218523665860e-02  3.6953652443831420e-02  7.2760052891405719e-02  1.7868454812284099e-01  2.4374654760887915e-01  1.4084350269385962e-01  5.2946734167393650e-02  7.5721218474603613e-02  9.4849607337018499e-02  9.1942122960643302e-02  8.8531683286104043e-02  8.6686817678131897e-02  8.5801706943852168e-02  8.5413430783954303e-02  8.5237355248795971e-02  8.5127893738096663e-02  8.5025587402306771e-02  8.4913407956441839e-02  8.4791762337234844e-02  8.4666629584308151e-02  8.4544615538386686e-02  8.4431247451676725e-02  8.4330722286461823e-02  8.4246349332049428e-02  8.4181285981930240e-02  8.4139150762281401e-02  1.6244733356201038e-01  1.6219843740323603e-01  8.3981824402574234e-02  8.3983963578204701e-02  8.3987089359554970e-02  8.3991015701473548e-02  8.3995630775201502e-02  8.4000848025222008e-02  8.4006581322158894e-02  8.4012741585248393e-02  8.4019243538710195e-02  8.4026014087687048e-02  8.4032998102675144e-02  8.4040160176871603e-02  8.4047482128148457e-02  8.4054956374288739e-02  8.4062575543573020e-02  8.4070319310415295e-02  8.4078140956879349e-02  8.4085957561046087e-02  8.4093648487488099e-02  8.4101069921194524e-02  8.4108087321409314e-02  8.4114619143531952e-02  8.4120681578757503e-02  8.4126424058259125e-02  8.4132147431638868e-02  8.4138302241800342e-02  8.4145468795755074e-02  8.4154320092359278e-02  8.4165569149537656e-02  8.4179907221375694e-02  8.4197944196183552e-02  8.4220163652713217e-02  8.4246902015055358e-02  8.4278353895839375e-02  8.4314596918495341e-02  8.4355624444048261e-02  8.4401375480450805e-02  8.4451753174559205e-02  8.4506651417112125e-02  8.4566099969287864e-02  8.4630190848774101e-02  8.4699039151076821e-02  8.4772963550090424e-02  8.4852581287474568e-02  8.4938904989644667e-02  8.5033398519464329e-02  8.5137933454767320e-02  8.5254601336348643e-02  8.5385764371650769e-02  8.5534541271223785e-02  8.5705500321002354e-02  8.5905532092613410e-02  8.6144669378847044e-02  8.6436636870779432e-02  8.6797089406527320e-02  8.7242539214347742e-02  8.7792932354182771e-02  8.8474072633600007e-02  8.9319505809909230e-02  9.0378071327031309e-02  9.1655613219037313e-02  9.3058474207867267e-02  9.4518714041273447e-02  9.5431338688784631e-02  9.5617652574050596e-02  9.4527556419287048e-02  8.9870915781211383e-02  7.5716960947449674e-02  5.3326138901441368e-02  4.7456297746253692e-02  9.9347968521689492e-02  2.4037426881022034e-01  4.6000430689122190e-01  7.1921188214273335e-01  8.9710943031768386e-01  9.5122621540422758e-01  9.5033761502932246e-01  9.4699115885006035e-01  9.4932961731314947e-01  9.4091792947560859e-01  8.3977004671595123e-01  3.4264204047204661e-01  2.0052499009317060e-01  1.8100620826019273e-01  1.2870028835050287e-01  8.5792396823064179e-02  8.5391144993206075e-02  8.5250451159639057e-02  8.5171911439596751e-02  8.5086214340861513e-02  8.4980082872284854e-02  8.4859011041781923e-02  8.4732339291137174e-02  8.4608353395852570e-02  8.4493246563011576e-02  8.4391457124815800e-02  8.4306565549210233e-02  8.4242166809402649e-02  8.4201604237931924e-02  1.6255299638689463e-01  1.6219743442423873e-01  8.3984777922135864e-02  8.3987297667199437e-02  8.3990943270686888e-02  8.3995430354249084e-02  8.4000580600130451e-02  8.4006267671418791e-02  8.4012381602642225e-02  8.4018816683294834e-02  8.4025473804223941e-02  8.4032267919450190e-02  8.4039134819820088e-02  8.4046034420437787e-02  8.4052949349139400e-02  8.4059878234811647e-02  8.4066823541651722e-02  8.4073774804999266e-02  8.4080690763619861e-02  8.4087485912256524e-02  8.4094027956937739e-02  8.4100160543040384e-02  8.4105752663166403e-02  8.4110761070370757e-02  8.4115289159852155e-02  8.4119627939855363e-02  8.4124269162571735e-02  8.4129891295352879e-02  8.4137324164744856e-02  8.4147492990647096e-02  8.4161342361577823e-02  8.4179749703317847e-02  8.4203445483484740e-02  8.4232958383034462e-02  8.4268598144785559e-02  8.4310476238913981e-02  8.4358550488274647e-02  8.4412675107629009e-02  8.4472644575900049e-02  8.4538230529466685e-02  8.4609222643476395e-02  8.4685518878243743e-02  8.4767213728771801e-02  8.4854561631715397e-02  8.4948169137758670e-02  8.5049210218284113e-02  8.5159657863438598e-02  8.5282470343332792e-02  8.5421628864250851e-02  8.5581860048539085e-02  8.5768875775718137e-02  8.5990396881304554e-02  8.6257359400679565e-02  8.6585236806672183e-02  8.6994475186013137e-02  8.7510812625292658e-02  8.8163213881553321e-02  8.8987282934867157e-02  9.0045551096995691e-02  9.1381897928814515e-02  9.2902559089326625e-02  9.4555129747614985e-02  9.5575749080247990e-02  9.5231757113376461e-02  9.2652055955687457e-02  8.3164591523943815e-02  6.6926676497555196e-02  5.9020271440745953e-02  1.5830604967611533e-01  3.6998592673487662e-01  6.7184103956737473e-01  8.7889221563493869e-01  9.4591859626450281e-01  9.4693885592384142e-01  9.4097201818578236e-01  9.3743708359952005e-01  9.3912529653537269e-01  9.4013682683445621e-01  9.3654934411215207e-01  9.3662998521306740e-01  9.3697849625137075e-01  9.3494097871494641e-01  9.4047072471575532e-01  8.3603235062261227e-01  6.3924710796058626e-01  5.5584728516483195e-01  5.2713594391212548e-01  1.6728933888748568e-01  8.5325025294113885e-02  8.5271416528242772e-02  8.5233886710935208e-02  8.5158083811347471e-02  8.5047771195086830e-02  8.4919070117805542e-02  8.4786200890204957e-02  8.4658992564068697e-02  8.4543679933452895e-02  8.4444292944540825e-02  8.4364168142633422e-02  8.4306835081678536e-02  8.4274114347104023e-02  1.6268057244082712e-01  1.6219605208946000e-01  8.3988644846139715e-02  8.3991401387015802e-02  8.3995414450612371e-02  8.4000316144180298e-02  8.4005859914426773e-02  8.4011876668230887e-02  8.4018233936076228e-02  8.4024815776833975e-02  8.4031519497169790e-02  8.4038260521406880e-02  8.4044978738025578e-02  8.4051642380006342e-02  8.4058247172763778e-02  8.4064809158371889e-02  8.4071350103346834e-02  8.4077875697189150e-02  8.4084351239366320e-02  8.4090682041035383e-02  8.4096706779814484e-02  8.4102232276751815e-02  8.41071085623