<?xml version="1.0"?>
<VTKFile type="UnstructuredGrid"  version="0.1"  >
<UnstructuredGrid>
<Piece  NumberOfPoints="5151" NumberOfCells="10000">
<Points>
<DataArray  type="Float64"  NumberOfComponents="3"  format="ascii">0 0 0  0.02 0 0  0.04 0 0  0.06 0 0  0.08 0 0  0.1 0 0  0.12 0 0  0.14 0 0  0.16 0 0  0.18 0 0  0.2 0 0  0.22 0 0  0.24 0 0  0.26 0 0  0.28 0 0  0.3 0 0  0.32 0 0  0.34 0 0  0.36 0 0  0.38 0 0  0.4 0 0  0.42 0 0  0.44 0 0  0.46 0 0  0.48 0 0  0.5 0 0  0.52 0 0  0.54 0 0  0.5600000000000001 0 0  0.58 0 0  0.6 0 0  0.62 0 0  0.64 0 0  0.66 0 0  0.68 0 0  0.7 0 0  0.72 0 0  0.74 0 0  0.76 0 0  0.78 0 0  0.8 0 0  0.82 0 0  0.84 0 0  0.86 0 0  0.88 0 0  0.9 0 0  0.92 0 0  0.9399999999999999 0 0  0.96 0 0  0.98 0 0  1 0 0  1.02 0 0  1.04 0 0  1.06 0 0  1.08 0 0  1.1 0 0  1.12 0 0  1.14 0 0  1.16 0 0  1.18 0 0  1.2 0 0  1.22 0 0  1.24 0 0  1.26 0 0  1.28 0 0  1.3 0 0  1.32 0 0  1.34 0 0  1.36 0 0  1.38 0 0  1.4 0 0  1.42 0 0  1.44 0 0  1.46 0 0  1.48 0 0  1.5 0 0  1.52 0 0  1.54 0 0  1.56 0 0  1.58 0 0  1.6 0 0  1.62 0 0  1.64 0 0  1.66 0 0  1.68 0 0  1.7 0 0  1.72 0 0  1.74 0 0  1.76 0 0  1.78 0 0  1.8 0 0  1.82 0 0  1.84 0 0  1.86 0 0  1.88 0 0  1.9 0 0  1.92 0 0  1.94 0 0  1.96 0 0  1.98 0 0  2 0 0  0 0.02 0  0.02 0.02 0  0.04 0.02 0  0.06 0.02 0  0.08 0.02 0  0.1 0.02 0  0.12 0.02 0  0.14 0.02 0  0.16 0.02 0  0.18 0.02 0  0.2 0.02 0  0.22 0.02 0  0.24 0.02 0  0.26 0.02 0  0.28 0.02 0  0.3 0.02 0  0.32 0.02 0  0.34 0.02 0  0.36 0.02 0  0.38 0.02 0  0.4 0.02 0  0.42 0.02 0  0.44 0.02 0  0.46 0.02 0  0.48 0.02 0  0.5 0.02 0  0.52 0.02 0  0.54 0.02 0  0.5600000000000001 0.02 0  0.58 0.02 0  0.6 0.02 0  0.62 0.02 0  0.64 0.02 0  0.66 0.02 0  0.68 0.02 0  0.7 0.02 0  0.72 0.02 0  0.74 0.02 0  0.76 0.02 0  0.78 0.02 0  0.8 0.02 0  0.82 0.02 0  0.84 0.02 0  0.86 0.02 0  0.88 0.02 0  0.9 0.02 0  0.92 0.02 0  0.9399999999999999 0.02 0  0.96 0.02 0  0.98 0.02 0  1 0.02 0  1.02 0.02 0  1.04 0.02 0  1.06 0.02 0  1.08 0.02 0  1.1 0.02 0  1.12 0.02 0  1.14 0.02 0  1.16 0.02 0  1.18 0.02 0  1.2 0.02 0  1.22 0.02 0  1.24 0.02 0  1.26 0.02 0  1.28 0.02 0  1.3 0.02 0  1.32 0.02 0  1.34 0.02 0  1.36 0.02 0  1.38 0.02 0  1.4 0.02 0  1.42 0.02 0  1.44 0.02 0  1.46 0.02 0  1.48 0.02 0  1.5 0.02 0  1.52 0.02 0  1.54 0.02 0  1.56 0.02 0  1.58 0.02 0  1.6 0.02 0  1.62 0.02 0  1.64 0.02 0  1.66 0.02 0  1.68 0.02 0  1.7 0.02 0  1.72 0.02 0  1.74 0.02 0  1.76 0.02 0  1.78 0.02 0  1.8 0.02 0  1.82 0.02 0  1.84 0.02 0  1.86 0.02 0  1.88 0.02 0  1.9 0.02 0  1.92 0.02 0  1.94 0.02 0  1.96 0.02 0  1.98 0.02 0  2 0.02 0  0 0.04 0  0.02 0.04 0  0.04 0.04 0  0.06 0.04 0  0.08 0.04 0  0.1 0.04 0  0.12 0.04 0  0.14 0.04 0  0.16 0.04 0  0.18 0.04 0  0.2 0.04 0  0.22 0.04 0  0.24 0.04 0  0.26 0.04 0  0.28 0.04 0  0.3 0.04 0  0.32 0.04 0  0.34 0.04 0  0.36 0.04 0  0.38 0.04 0  0.4 0.04 0  0.42 0.04 0  0.44 0.04 0  0.46 0.04 0  0.48 0.04 0  0.5 0.04 0  0.52 0.04 0  0.54 0.04 0  0.5600000000000001 0.04 0  0.58 0.04 0  0.6 0.04 0  0.62 0.04 0  0.64 0.04 0  0.66 0.04 0  0.68 0.04 0  0.7 0.04 0  0.72 0.04 0  0.74 0.04 0  0.76 0.04 0  0.78 0.04 0  0.8 0.04 0  0.82 0.04 0  0.84 0.04 0  0.86 0.04 0  0.88 0.04 0  0.9 0.04 0  0.92 0.04 0  0.9399999999999999 0.04 0  0.96 0.04 0  0.98 0.04 0  1 0.04 0  1.02 0.04 0  1.04 0.04 0  1.06 0.04 0  1.08 0.04 0  1.1 0.04 0  1.12 0.04 0  1.14 0.04 0  1.16 0.04 0  1.18 0.04 0  1.2 0.04 0  1.22 0.04 0  1.24 0.04 0  1.26 0.04 0  1.28 0.04 0  1.3 0.04 0  1.32 0.04 0  1.34 0.04 0  1.36 0.04 0  1.38 0.04 0  1.4 0.04 0  1.42 0.04 0  1.44 0.04 0  1.46 0.04 0  1.48 0.04 0  1.5 0.04 0  1.52 0.04 0  1.54 0.04 0  1.56 0.04 0  1.58 0.04 0  1.6 0.04 0  1.62 0.04 0  1.64 0.04 0  1.66 0.04 0  1.68 0.04 0  1.7 0.04 0  1.72 0.04 0  1.74 0.04 0  1.76 0.04 0  1.78 0.04 0  1.8 0.04 0  1.82 0.04 0  1.84 0.04 0  1.86 0.04 0  1.88 0.04 0  1.9 0.04 0  1.92 0.04 0  1.94 0.04 0  1.96 0.04 0  1.98 0.04 0  2 0.04 0  0 0.06 0  0.02 0.06 0  0.04 0.06 0  0.06 0.06 0  0.08 0.06 0  0.1 0.06 0  0.12 0.06 0  0.14 0.06 0  0.16 0.06 0  0.18 0.06 0  0.2 0.06 0  0.22 0.06 0  0.24 0.06 0  0.26 0.06 0  0.28 0.06 0  0.3 0.06 0  0.32 0.06 0  0.34 0.06 0  0.36 0.06 0  0.38 0.06 0  0.4 0.06 0  0.42 0.06 0  0.44 0.06 0  0.46 0.06 0  0.48 0.06 0  0.5 0.06 0  0.52 0.06 0  0.54 0.06 0  0.5600000000000001 0.06 0  0.58 0.06 0  0.6 0.06 0  0.62 0.06 0  0.64 0.06 0  0.66 0.06 0  0.68 0.06 0  0.7 0.06 0  0.72 0.06 0  0.74 0.06 0  0.76 0.06 0  0.78 0.06 0  0.8 0.06 0  0.82 0.06 0  0.84 0.06 0  0.86 0.06 0  0.88 0.06 0  0.9 0.06 0  0.92 0.06 0  0.9399999999999999 0.06 0  0.96 0.06 0  0.98 0.06 0  1 0.06 0  1.02 0.06 0  1.04 0.06 0  1.06 0.06 0  1.08 0.06 0  1.1 0.06 0  1.12 0.06 0  1.14 0.06 0  1.16 0.06 0  1.18 0.06 0  1.2 0.06 0  1.22 0.06 0  1.24 0.06 0  1.26 0.06 0  1.28 0.06 0  1.3 0.06 0  1.32 0.06 0  1.34 0.06 0  1.36 0.06 0  1.38 0.06 0  1.4 0.06 0  1.42 0.06 0  1.44 0.06 0  1.46 0.06 0  1.48 0.06 0  1.5 0.06 0  1.52 0.06 0  1.54 0.06 0  1.56 0.06 0  1.58 0.06 0  1.6 0.06 0  1.62 0.06 0  1.64 0.06 0  1.66 0.06 0  1.68 0.06 0  1.7 0.06 0  1.72 0.06 0  1.74 0.06 0  1.76 0.06 0  1.78 0.06 0  1.8 0.06 0  1.82 0.06 0  1.84 0.06 0  1.86 0.06 0  1.88 0.06 0  1.9 0.06 0  1.92 0.06 0  1.94 0.06 0  1.96 0.06 0  1.98 0.06 0  2 0.06 0  0 0.08 0  0.02 0.08 0  0.04 0.08 0  0.06 0.08 0  0.08 0.08 0  0.1 0.08 0  0.12 0.08 0  0.14 0.08 0  0.16 0.08 0  0.18 0.08 0  0.2 0.08 0  0.22 0.08 0  0.24 0.08 0  0.26 0.08 0  0.28 0.08 0  0.3 0.08 0  0.32 0.08 0  0.34 0.08 0  0.36 0.08 0  0.38 0.08 0  0.4 0.08 0  0.42 0.08 0  0.44 0.08 0  0.46 0.08 0  0.48 0.08 0  0.5 0.08 0  0.52 0.08 0  0.54 0.08 0  0.5600000000000001 0.08 0  0.58 0.08 0  0.6 0.08 0  0.62 0.08 0  0.64 0.08 0  0.66 0.08 0  0.68 0.08 0  0.7 0.08 0  0.72 0.08 0  0.74 0.08 0  0.76 0.08 0  0.78 0.08 0  0.8 0.08 0  0.82 0.08 0  0.84 0.08 0  0.86 0.08 0  0.88 0.08 0  0.9 0.08 0  0.92 0.08 0  0.9399999999999999 0.08 0  0.96 0.08 0  0.98 0.08 0  1 0.08 0  1.02 0.08 0  1.04 0.08 0  1.06 0.08 0  1.08 0.08 0  1.1 0.08 0  1.12 0.08 0  1.14 0.08 0  1.16 0.08 0  1.18 0.08 0  1.2 0.08 0  1.22 0.08 0  1.24 0.08 0  1.26 0.08 0  1.28 0.08 0  1.3 0.08 0  1.32 0.08 0  1.34 0.08 0  1.36 0.08 0  1.38 0.08 0  1.4 0.08 0  1.42 0.08 0  1.44 0.08 0  1.46 0.08 0  1.48 0.08 0  1.5 0.08 0  1.52 0.08 0  1.54 0.08 0  1.56 0.08 0  1.58 0.08 0  1.6 0.08 0  1.62 0.08 0  1.64 0.08 0  1.66 0.08 0  1.68 0.08 0  1.7 0.08 0  1.72 0.08 0  1.74 0.08 0  1.76 0.08 0  1.78 0.08 0  1.8 0.08 0  1.82 0.08 0  1.84 0.08 0  1.86 0.08 0  1.88 0.08 0  1.9 0.08 0  1.92 0.08 0  1.94 0.08 0  1.96 0.08 0  1.98 0.08 0  2 0.08 0  0 0.1 0  0.02 0.1 0  0.04 0.1 0  0.06 0.1 0  0.08 0.1 0  0.1 0.1 0  0.12 0.1 0  0.14 0.1 0  0.16 0.1 0  0.18 0.1 0  0.2 0.1 0  0.22 0.1 0  0.24 0.1 0  0.26 0.1 0  0.28 0.1 0  0.3 0.1 0  0.32 0.1 0  0.34 0.1 0  0.36 0.1 0  0.38 0.1 0  0.4 0.1 0  0.42 0.1 0  0.44 0.1 0  0.46 0.1 0  0.48 0.1 0  0.5 0.1 0  0.52 0.1 0  0.54 0.1 0  0.5600000000000001 0.1 0  0.58 0.1 0  0.6 0.1 0  0.62 0.1 0  0.64 0.1 0  0.66 0.1 0  0.68 0.1 0  0.7 0.1 0  0.72 0.1 0  0.74 0.1 0  0.76 0.1 0  0.78 0.1 0  0.8 0.1 0  0.82 0.1 0  0.84 0.1 0  0.86 0.1 0  0.88 0.1 0  0.9 0.1 0  0.92 0.1 0  0.9399999999999999 0.1 0  0.96 0.1 0  0.98 0.1 0  1 0.1 0  1.02 0.1 0  1.04 0.1 0  1.06 0.1 0  1.08 0.1 0  1.1 0.1 0  1.12 0.1 0  1.14 0.1 0  1.16 0.1 0  1.18 0.1 0  1.2 0.1 0  1.22 0.1 0  1.24 0.1 0  1.26 0.1 0  1.28 0.1 0  1.3 0.1 0  1.32 0.1 0  1.34 0.1 0  1.36 0.1 0  1.38 0.1 0  1.4 0.1 0  1.42 0.1 0  1.44 0.1 0  1.46 0.1 0  1.48 0.1 0  1.5 0.1 0  1.52 0.1 0  1.54 0.1 0  1.56 0.1 0  1.58 0.1 0  1.6 0.1 0  1.62 0.1 0  1.64 0.1 0  1.66 0.1 0  1.68 0.1 0  1.7 0.1 0  1.72 0.1 0  1.74 0.1 0  1.76 0.1 0  1.78 0.1 0  1.8 0.1 0  1.82 0.1 0  1.84 0.1 0  1.86 0.1 0  1.88 0.1 0  1.9 0.1 0  1.92 0.1 0  1.94 0.1 0  1.96 0.1 0  1.98 0.1 0  2 0.1 0  0 0.12 0  0.02 0.12 0  0.04 0.12 0  0.06 0.12 0  0.08 0.12 0  0.1 0.12 0  0.12 0.12 0  0.14 0.12 0  0.16 0.12 0  0.18 0.12 0  0.2 0.12 0  0.22 0.12 0  0.24 0.12 0  0.26 0.12 0  0.28 0.12 0  0.3 0.12 0  0.32 0.12 0  0.34 0.12 0  0.36 0.12 0  0.38 0.12 0  0.4 0.12 0  0.42 0.12 0  0.44 0.12 0  0.46 0.12 0  0.48 0.12 0  0.5 0.12 0  0.52 0.12 0  0.54 0.12 0  0.5600000000000001 0.12 0  0.58 0.12 0  0.6 0.12 0  0.62 0.12 0  0.64 0.12 0  0.66 0.12 0  0.68 0.12 0  0.7 0.12 0  0.72 0.12 0  0.74 0.12 0  0.76 0.12 0  0.78 0.12 0  0.8 0.12 0  0.82 0.12 0  0.84 0.12 0  0.86 0.12 0  0.88 0.12 0  0.9 0.12 0  0.92 0.12 0  0.9399999999999999 0.12 0  0.96 0.12 0  0.98 0.12 0  1 0.12 0  1.02 0.12 0  1.04 0.12 0  1.06 0.12 0  1.08 0.12 0  1.1 0.12 0  1.12 0.12 0  1.14 0.12 0  1.16 0.12 0  1.18 0.12 0  1.2 0.12 0  1.22 0.12 0  1.24 0.12 0  1.26 0.12 0  1.28 0.12 0  1.3 0.12 0  1.32 0.12 0  1.34 0.12 0  1.36 0.12 0  1.38 0.12 0  1.4 0.12 0  1.42 0.12 0  1.44 0.12 0  1.46 0.12 0  1.48 0.12 0  1.5 0.12 0  1.52 0.12 0  1.54 0.12 0  1.56 0.12 0  1.58 0.12 0  1.6 0.12 0  1.62 0.12 0  1.64 0.12 0  1.66 0.12 0  1.68 0.12 0  1.7 0.12 0  1.72 0.12 0  1.74 0.12 0  1.76 0.12 0  1.78 0.12 0  1.8 0.12 0  1.82 0.12 0  1.84 0.12 0  1.86 0.12 0  1.88 0.12 0  1.9 0.12 0  1.92 0.12 0  1.94 0.12 0  1.96 0.12 0  1.98 0.12 0  2 0.12 0  0 0.14 0  0.02 0.14 0  0.04 0.14 0  0.06 0.14 0  0.08 0.14 0  0.1 0.14 0  0.12 0.14 0  0.14 0.14 0  0.16 0.14 0  0.18 0.14 0  0.2 0.14 0  0.22 0.14 0  0.24 0.14 0  0.26 0.14 0  0.28 0.14 0  0.3 0.14 0  0.32 0.14 0  0.34 0.14 0  0.36 0.14 0  0.38 0.14 0  0.4 0.14 0  0.42 0.14 0  0.44 0.14 0  0.46 0.14 0  0.48 0.14 0  0.5 0.14 0  0.52 0.14 0  0.54 0.14 0  0.5600000000000001 0.14 0  0.58 0.14 0  0.6 0.14 0  0.62 0.14 0  0.64 0.14 0  0.66 0.14 0  0.68 0.14 0  0.7 0.14 0  0.72 0.14 0  0.74 0.14 0  0.76 0.14 0  0.78 0.14 0  0.8 0.14 0  0.82 0.14 0  0.84 0.14 0  0.86 0.14 0  0.88 0.14 0  0.9 0.14 0  0.92 0.14 0  0.9399999999999999 0.14 0  0.96 0.14 0  0.98 0.14 0  1 0.14 0  1.02 0.14 0  1.04 0.14 0  1.06 0.14 0  1.08 0.14 0  1.1 0.14 0  1.12 0.14 0  1.14 0.14 0  1.16 0.14 0  1.18 0.14 0  1.2 0.14 0  1.22 0.14 0  1.24 0.14 0  1.26 0.14 0  1.28 0.14 0  1.3 0.14 0  1.32 0.14 0  1.34 0.14 0  1.36 0.14 0  1.38 0.14 0  1.4 0.14 0  1.42 0.14 0  1.44 0.14 0  1.46 0.14 0  1.48 0.14 0  1
[...]
<PointData  Scalars="sols[i]"> 
<DataArray  type="Float64"  Name="sols[i]"  format="ascii">3.2204599244241069e-03  2.1488725334343657e-03  2.1488725334343579e-03  2.1488725334343423e-03  2.1488725334343171e-03  2.1488725334342781e-03  2.1488725334342157e-03  2.1488725334341289e-03  2.1488725334340105e-03  2.1488725334338527e-03  2.1488725334336579e-03  2.1488725334334225e-03  2.1488725334331488e-03  2.1488725334328552e-03  2.1488725334325755e-03  2.1488725334323656e-03  2.1488725334323725e-03  2.1488725334328912e-03  2.1488725334345175e-03  2.1488725334385186e-03  2.1488725334475314e-03  2.1488725334670019e-03  2.1488725335082120e-03  2.1488725335943072e-03  2.1488725337723957e-03  2.1488725341375441e-03  2.1488725348794858e-03  2.1488725363722448e-03  2.1488725393427406e-03  2.1488725451806493e-03  2.1488725564924628e-03  2.1488725780585286e-03  2.1488726184166543e-03  2.1488726923388039e-03  2.1488728244154105e-03  2.1488730536733747e-03  2.1488734384255970e-03  2.1488740592329049e-03  2.1488750162400481e-03  2.1488764167081212e-03  2.1488783527824785e-03  2.1488808827520734e-03  2.1488840487727417e-03  2.1488879632410485e-03  2.1488929195743285e-03  2.1488993513004723e-03  2.1489075262550164e-03  2.1489172407984612e-03  2.1489278890760317e-03  2.1489388631080269e-03  2.1489498456034014e-03  2.1489601792511787e-03  2.1489680882733012e-03  2.1489716003776946e-03  2.1489696636799414e-03  2.1489624755532954e-03  2.1489512618006854e-03  2.1489376507544287e-03  2.1489233708013927e-03  2.1489100125689688e-03  2.1488986978378385e-03  2.1488899063532253e-03  2.1488835624916530e-03  2.1488792633503912e-03  2.1488765003927126e-03  2.1488748025025100e-03  2.1488737979416918e-03  2.1488732224253446e-03  2.1488729016369067e-03  2.1488727269805569e-03  2.1488726337815932e-03  2.1488725848987701e-03  2.1488725596316453e-03  2.1488725467276606e-03  2.1488725401979129e-03  2.1488725369121038e-03  2.1488725352595555e-03  2.1488725344228177e-03  2.1488725339919752e-03  2.1488725337635447e-03  2.1488725336372572e-03  2.1488725335638498e-03  2.1488725335189252e-03  2.1488725334902377e-03  2.1488725334713743e-03  2.1488725334587715e-03  2.1488725334503156e-03  2.1488725334446665e-03  2.1488725334409273e-03  2.1488725334384844e-03  2.1488725334369114e-03  2.1488725334359157e-03  2.1488725334352947e-03  2.1488725334349312e-03  2.1488725334346953e-03  2.1488725334345539e-03  2.1488725334344772e-03  2.1488725334344342e-03  2.1488725334344108e-03  2.1488725334344004e-03  6.4233908781667279e-03  2.1488725334343657e-03  1.0753719907853104e-03  1.0753719907853057e-03  1.0753719907852970e-03  1.0753719907852827e-03  1.0753719907852614e-03  1.0753719907852289e-03  1.0753719907851845e-03  1.0753719907851253e-03  1.0753719907850476e-03  1.0753719907849518e-03  1.0753719907848377e-03  1.0753719907847059e-03  1.0753719907845645e-03  1.0753719907844309e-03  1.0753719907843351e-03  1.0753719907843459e-03  1.0753719907846118e-03  1.0753719907854323e-03  1.0753719907874418e-03  1.0753719907919757e-03  1.0753719908018116e-03  1.0753719908227393e-03  1.0753719908667431e-03  1.0753719909584350e-03  1.0753719911479709e-03  1.0753719915365524e-03  1.0753719923260931e-03  1.0753719939142817e-03  1.0753719970727446e-03  1.0753720032728163e-03  1.0753720152631167e-03  1.0753720380548774e-03  1.0753720805207027e-03  1.0753721578170899e-03  1.0753722947040192e-03  1.0753725293867827e-03  1.0753729165427065e-03  1.0753735267076360e-03  1.0753744379828677e-03  1.0753757177502988e-03  1.0753774017019089e-03  1.0753794976111858e-03  1.0753820538581538e-03  1.0753852758836268e-03  1.0753895273809769e-03  1.0753950665274145e-03  1.0754017501936270e-03  1.0754090845850682e-03  1.0754166018046778e-03  1.0754242402579062e-03  1.0754317485129790e-03  1.0754377311263173e-03  1.0754405730910334e-03  1.0754394382832717e-03  1.0754344672424308e-03  1.0754266048246808e-03  1.0754170189956011e-03  1.0754069426754402e-03  1.0753975443624482e-03  1.0753896470429929e-03  1.0753835811819902e-03  1.0753792623893973e-03  1.0753763763745360e-03  1.0753745470935155e-03  1.0753734376884342e-03  1.0753727893202069e-03  1.0753724220355664e-03  1.0753722194047936e-03  1.0753721100994829e-03  1.0753720522574024e-03  1.0753720221448886e-03  1.0753720066826733e-03  1.0753719988314044e-03  1.0753719948773839e-03  1.0753719928946540e-03  1.0753719918991484e-03  1.0753719913945939e-03  1.0753719911335675e-03  1.0753719909938854e-03  1.0753719909156034e-03  1.0753719908693500e-03  1.0753719908405922e-03  1.0753719908219771e-03  1.0753719908096239e-03  1.0753719908013276e-03  1.0753719907957522e-03  1.0753719907920305e-03  1.0753719907895744e-03  1.0753719907879761e-03  1.0753719907869519e-03  1.0753719907863066e-03  1.0753719907859063e-03  1.0753719907856687e-03  1.0753719907855225e-03  1.0753719907854310e-03  1.0753719907853816e-03  1.0753719907853538e-03  1.0753719907853391e-03  1.0753719907853319e-03  2.1488725334344004e-03  2.1488725334343583e-03  1.0753719907853061e-03  1.0753719907853005e-03  1.0753719907852905e-03  1.0753719907852753e-03  1.0753719907852543e-03  1.0753719907852250e-03  1.0753719907851868e-03  1.0753719907851396e-03  1.0753719907850797e-03  1.0753719907850095e-03  1.0753719907849301e-03  1.0753719907848425e-03  1.0753719907847573e-03  1.0753719907846957e-03  1.0753719907846938e-03  1.0753719907848369e-03  1.0753719907853100e-03  1.0753719907864905e-03  1.0753719907891945e-03  1.0753719907951593e-03  1.0753719908080544e-03  1.0753719908356439e-03  1.0753719908942493e-03  1.0753719910179562e-03  1.0753719912774749e-03  1.0753719918182628e-03  1.0753719929366713e-03  1.0753719952298303e-03  1.0753719998854408e-03  1.0753720092303094e-03  1.0753720277414931e-03  1.0753720638491506e-03  1.0753721330144883e-03  1.0753722626832170e-03  1.0753724996019789e-03  1.0753729192191520e-03  1.0753736347641767e-03  1.0753747994207150e-03  1.0753765895356038e-03  1.0753791559790435e-03  1.0753825512566050e-03  1.0753867055576763e-03  1.0753916089751318e-03  1.0753977255455924e-03  1.0754060928324836e-03  1.0754174685077039e-03  1.0754313589564626e-03  1.0754462885007004e-03  1.0754610839023970e-03  1.0754765303683613e-03  1.0754930545087919e-03  1.0755065709794529e-03  1.0755126355749788e-03  1.0755094862502639e-03  1.0754978534107816e-03  1.0754804064906204e-03  1.0754597063366447e-03  1.0754383796753122e-03  1.0754190282003962e-03  1.0754033542388262e-03  1.0753918182058902e-03  1.0753839668715881e-03  1.0753789512307579e-03  1.0753759072336284e-03  1.0753741353084123e-03  1.0753731385211552e-03  1.0753725933833674e-03  1.0753723021617633e-03  1.0753721496077652e-03  1.0753720709964722e-03  1.0753720310388306e-03  1.0753720109526117e-03  1.0753720009383065e-03  1.0753719959680362e-03  1.0753719934989614e-03  1.0753719922611685e-03  1.0753719916275321e-03  1.0753719912913716e-03  1.0753719911038308e-03  1.0753719909928656e-03  1.0753719909233925e-03  1.0753719908779204e-03  1.0753719908473290e-03  1.0753719908265199e-03  1.0753719908123704e-03  1.0753719908028312e-03  1.0753719907964844e-03  1.0753719907923276e-03  1.0753719907896503e-03  1.0753719907879548e-03  1.0753719907868990e-03  1.0753719907862524e-03  1.0753719907858682e-03  1.0753719907856361e-03  1.0753719907854948e-03  1.0753719907854167e-03  1.0753719907853729e-03  1.0753719907853493e-03  1.0753719907853382e-03  2.1488725334344091e-03  2.1488725334343440e-03  1.0753719907852979e-03  1.0753719907852911e-03  1.0753719907852801e-03  1.0753719907852640e-03  1.0753719907852432e-03  1.0753719907852159e-03  1.0753719907851834e-03  1.0753719907851461e-03  1.0753719907851010e-03  1.0753719907850524e-03  1.0753719907850027e-03  1.0753719907849544e-03  1.0753719907849210e-03  1.0753719907849288e-03  1.0753719907850273e-03  1.0753719907853269e-03  1.0753719907860724e-03  1.0753719907877772e-03  1.0753719907915581e-03  1.0753719907998296e-03  1.0753719908177773e-03  1.0753719908565382e-03  1.0753719909399216e-03  1.0753719911185491e-03  1.0753719914994464e-03  1.0753719923073204e-03  1.0753719940101597e-03  1.0753719975735538e-03  1.0753720049679395e-03  1.0753720201622748e-03  1.0753720510273054e-03  1.0753721128789883e-03  1.0753722348358999e-03  1.0753724706674371e-03  1.0753729160203201e-03  1.0753737328447319e-03  1.0753751773880191e-03  1.0753776169669131e-03  1.0753815008243371e-03  1.0753872315060246e-03  1.0753949135834514e-03  1.0754041555828824e-03  1.0754145271998305e-03  1.0754270817017234e-03  1.0754450346084098e-03  1.0754706509568490e-03  1.0755016363631056e-03  1.0755331269047667e-03  1.0755621769234019e-03  1.0755945776016679e-03  1.0756366946061422e-03  1.0756745455915548e-03  1.0756921148629174e-03  1.0756845410326663e-03  1.0756551589457780e-03  1.0756128304129913e-03  1.0755634808897318e-03  1.0755132433566991e-03  1.0754688107978065e-03  1.0754341632856087e-03  1.0754097723254300e-03  1.0753939273127709e-03  1.0753842606283858e-03  1.0753786473060418e-03  1.0753755128797015e-03  1.0753738166578129e-03  1.0753729216867679e-03  1.0753724591153727e-03  1.0753722240357561e-03  1.0753721062064271e-03  1.0753720477973551e-03  1.0753720190820092e-03  1.0753720050318731e-03  1.0753719981542863e-03  1.0753719947584610e-03  1.0753719930459075e-03  1.0753719921488285e-03  1.0753719916520258e-03  1.0753719913578590e-03  1.0753719911719786e-03  1.0753719910484693e-03  1.0753719909639002e-03  1.0753719909053316e-03  1.0753719908648705e-03  1.0753719908372175e-03  1.0753719908186119e-03  1.0753719908063166e-03  1.0753719907983430e-03  1.0753719907932681e-03  1.0753719907900965e-03  1.0753719907881485e-03  1.0753719907869714e-03  1.0753719907862767e-03  1.0753719907858664e-03  1.0753719907856227e-03  1.0753719907854874e-03  1.0753719907854115e-03  1.0753719907853705e-03  1.0753719907853508e-03  2.1488725334344273e-03  2.1488725334343219e-03  1.0753719907852853e-03  1.0753719907852775e-03  1.0753719907852656e-03  1.0753719907852489e-03  1.0753719907852285e-03  1.0753719907852029e-03  1.0753719907851743e-03  1.0753719907851437e-03  1.0753719907851101e-03  1.0753719907850776e-03  1.0753719907850505e-03  1.0753719907850335e-03  1.0753719907850442e-03  1.0753719907851177e-03  1.0753719907853206e-03  1.0753719907858044e-03  1.0753719907869029e-03  1.0753719907893298e-03  1.0753719907946532e-03  1.0753719908063028e-03  1.0753719908317460e-03  1.0753719908872463e-03  1.0753719910080969e-03  1.0753719912705629e-03  1.0753719918387104e-03  1.0753719930634946e-03  1.0753719956907071e-03  1.0753720012929738e-03  1.0753720131562042e-03  1.0753720380716862e-03  1.0753720898924379e-03  1.0753721964268811e-03  1.0753724123993627e-03  1.0753728428322497e-03  1.0753736828324207e-03  1.0753752794811092e-03  1.0753782140504970e-03  1.0753833768332058e-03  1.0753919457755900e-03  1.0754050820372598e-03  1.0754231209843062e-03  1.0754445279225230e-03  1.0754667584209248e-03  1.0754916650213774e-03  1.0755288266277939e-03  1.0755833938665546e-03  1.0756419659493054e-03  1.6130755700669796e-03  2.1502974470504234e-03  2.1504951029946060e-03  2.1508967596689322e-03  1.6137788010048505e-03  1.0760857090140938e-03  1.0760882180234047e-03  1.0760204087796263e-03  1.0759186466981763e-03  1.0757993728466144e-03  1.0756782429064042e-03  1.0755741284155735e-03  1.0754964867057877e-03  1.0754445131922529e-03  1.0754124117812775e-03  1.0753937459259965e-03  1.0753833794389031e-03  1.0753778225263298e-03  1.0753749250830378e-03  1.0753734470101979e-03  1.0753727060404054e-03  1.0753723397387146e-03  1.0753721606506870e-03  1.0753720738207163e-03  1.0753720319375971e-03  1.0753720117441317e-03  1.0753720019371312e-03  1.0753719970788358e-03  1.0753719945783445e-03  1.0753719932125279e-03  1.0753719924083490e-03  1.0753719918978697e-03  1.0753719915542158e-03  1.0753719913147405e-03  1.0753719911457680e-03  1.0753719910269340e-03  1.0753719909444375e-03  1.0753719908881835e-03  1.0753719908505933e-03  1.0753719908259953e-03  1.0753719908102289e-03  1.0753719908003230e-03  1.0753719907942161e-03  1.0753719907905183e-03  1.0753719907883159e-03  1.0753719907870304e-03  1.0753719907862841e-03  1.0753719907858519e-03  1.0753719907856121e-03  1.0753719907854791e-03  1.0753719907854076e-03  1.0753719907853729e-03  2.1488725334344611e-03  2.1488725334342881e-03  1.0753719907852671e-03  1.0753719907852601e-03  1.0753719907852484e-03  1.0753719907852317e-03  1.0753719907852116e-03  1.0753719907851879e-03  1.0753719907851626e-03  1.0753719907851376e-03  1.0753719907851127e-03  1.0753719907850932e-03  1.0753719907850849e-03  1.0753719907850960e-03  1.0753719907851493e-03  1.0753719907852922e-03  1.0753719907856179e-03  1.0753719907863339e-03  1.0753719907879006e-03  1.0753719907913115e-03  1.0753719907987650e-03  1.0753719908151115e-03  1.0753719908510296e-03  1.0753719909300480e-03  1.0753719911038894e-03  1.0753719914859245e-03  1.0753719923238148e-03  1.0753719941562552e-03  1.0753719981489501e-03  1.0753720068090822e-03  1.0753720254900085e-03  1.0753720655232869e-03  1.0753721506435456e-03  1.0753723299270945e-03  1.0753727032305864e-03  1.0753734696197920e-03  1.0753750154825102e-03  1.0753780643028182e-03  1.0753839038929018e-03  1.0753946592035909e-03  1.0754134226963344e-03  1.0754436887084181e-03  1.0754869865673539e-03  1.0755382047038082e-03  1.0755854085494946e-03  1.0756274579540412e-03  1.0756886787981965e-03  1.6132808204093688e-03  2.1508268958077069e-03  3.2250312513804804e-03  5.4392162168089231e-01  5.4592175913087992e-01  5.5831378161018463e-01  5.8139433983721023e-01  3.2322993901963411e-03  1.6157254879308233e-03  1.0768150022649127e-03  1.0766101925931237e-03  1.0763276512105163e-03  1.0760330600233237e-03  1.0757886556930060e-03  1.0756164212599030e-03  1.0755078375990085e-03  1.0754444780198573e-03  1.0754094927292175e-03  1.0753909393830881e-03  1.0753813924836882e-03  1.0753765912541410e-03  1.0753742189106700e-03  1.0753730626921957e-03  1.0753725051677846e-03  1.0753722384870259e-03  1.0753721115919180e-03  1.0753720512868992e-03  1.0753720224687150e-03  1.0753720084547449e-03  1.0753720013865046e-03  1.0753719975966330e-03  1.0753719953900862e-03  1.0753719939890485e-03  1.0753719930353791e-03  1.0753719923589553e-03  1.0753719918720950e-03  1.0753719915230198e-03  1.0753719912763959e-03  1.0753719911056623e-03  1.0753719909901067e-03  1.0753719909136858e-03  1.0753719908642816e-03  1.0753719908330305e-03  1.0753719908136667e-03  1.0753719908018983e-03  1.0753719907948740e-03  1.0753719907907518e-03  1.0753719907883753e-03  1.0753719907870185e-03  1.0753719907862498e-03  1.0753719907858261e-03  1.0753719907855947e-03  1.0753719907854713e-03  1.0753719907854119e-03  2.1488725334345201e-03  2.1488725334342356e-03  1.0753719907852404e-03  1.0753719907852363e-03  1.0753719907852270e-03  1.0753719907852120e-03  1.0753719907851938e-03  1.0753719907851721e-03  1.0753719907851500e-03  1.0753719907851305e-03  1.0753719907851138e-03  1.0753719907851066e-03  1.0753719907851170e-03  1.0753719907851580e-03  1.0753719907852601e-03  1.0753719907854896e-03  1.0753719907859748e-03  1.0753719907870035e-03  1.0753719907892058e-03  1.0753719907939533e-03  1.0753719908042862e-03  1.0753719908269512e-03  1.0753719908769221e-03  1.0753719909874992e-03  1.0753719912326863e-03  1.0753719917766850e-03  1.0753719929830776e-03  1.0753719956545337e-03  1.0753720015565479e-03  1.0753720145550609e-03  1.0753720430699588e-03  1.0753721053211786e-03  1.0753722404268141e-03  1.0753725315668229e-03  1.0753731534933813e-03  1.0753744677309044e-03  1.0753772072368581e-03  1.0753828178354944e-03  1.0753940427795279e-03  1.0754157902705310e-03  1.0754560252065099e-03  1.0755253880908992e-03  1.0756312943163452e-03  1.0757590464896927e-03  1.0758587501771707e-03  1.0758961421734915e-03  1.6136244142308344e-03  3.2264124509352021e-03  5.5446717710713544e-01  5.4391106605172435e-01  5.3878221761545686e-01  5.3352961752327122e-01  5.4492808242638902e-01  5.6262342386897390e-01  6.1951510542963795e-01  6.7972477792016306e-01  2.1600554939110459e-03  1.0780705470580644e-03  1.0774943377503672e-03  1.0767797569980694e-03  1.0762092861802347e-03  1.0758356922407697e-03  1.0756165446463562e-03  1.0754965941052030e-03  1.0754339185968973e-03  1.0754022146636289e-03  1.0753865465322578e-03  1.0753789344480720e-03  1.0753752830501865e-03  1.0753735482327341e-03  1.0753727298405029e-03  1.0753723455952365e-03  1.0753721654731937e-03  1.0753720807010574e-03  1.0753720402186266e-03  1.0753720202319741e-03  1.0753720097476023e-03  1.0753720037400692e-03  1.0753719999391786e-03  1.0753719973266350e-03  1.0753719954389464e-03  1.0753719940501832e-03  1.0753719930326820e-03  1.0753719922995462e-03  1.0753719917832359e-03  1.0753719914286929e-03  1.0753719911913815e-03  1.0753719910364477e-03  1.0753719909376699e-03  1.0753719908760870e-03  1.0753719908384882e-03  1.0753719908159756e-03  1.0753719908027379e-03  1.0753719907950834e-03  1.0753719907907315e-03  1.0753719907882851e-03  1.0753719907869242e-03  1.0753719907861834e-03  1.0753719907857840e-03  1.0753719907855746e-03  1.0753719907854746e-03  2.1488725334346181e-03  2.1488725334341680e-03  1.0753719907852059e-03  1.0753719907852081e-03  1.0753719907852033e-03  1.0753719907851923e-03  1.0753719907851773e-03  1.0753719907851589e-03  1.0753719907851413e-03  1.0753719907851279e-03  1.0753719907851205e-03  1.0753719907851279e-03  1.0753719907851608e-03  1.0753719907852395e-03  1.0753719907854085e-03  1.0753719907857584e-03  1.0753719907864718e-03  1.0753719907879446e-03  1.0753719907910376e-03  1.0753719907976205e-03  1.0753719908118266e-03  1.0753719908428430e-03  1.0753719909111568e-03  1.0753719910626262e-03  1.0753719914000310e-03  1.0753719921537544e-03  1.0753719938398590e-03  1.0753719976125328e-03  1.0753720060473349e-03  1.0753720248749491e-03  1.0753720668006577e-03  1.0753721598705970e-03  1.0753723656686520e-03  1.0753728185479174e-03  1.0753738092603576e-03  1.0753759605843624e-03  1.0753805886578878e-03  1.0753904246664798e-03  1.0754109916665312e-03  1.0754530323921862e-03  1.0755361459811360e-03  1.0756918871749226e-03  1.0759531931472093e-03  1.0762853742987545e-03  1.0764961903115002e-03  1.6147707950394477e-03  3.2273541357853248e-03  5.5370544310604497e-01  5.5375458228575991e-01  4.9999999423121017e-01  4.9999999425794034e-01  4.9999999436070930e-01  4.9999999435884890e-01  4.9999999422306463e-01  4.9999999408556312e-01  6.2684555187013180e-01  7.4027530585618040e-01  2.1695064998393399e-03  1.0798746506881806e-03  1.0782862314106456e-03  1.0769878359382400e-03  1.0762090242468895e-03  1.0757891495922780e-03  1.0755747835506668e-03  1.0754689354770799e-03  1.0754178071333991e-03  1.0753934781433502e-03  1.0753820221838378e-03  1.0753766678888253e-03  1.0753741786168601e-03  1.0753730253588996e-03  1.0753724917323710e-03  1.0753722441034922e-03  1.0753721278498733e-03  1.0753720716711981e-03  1.0753720429113769e-03  1.0753720267685269e-03  1.0753720166345971e-03  1.0753720096107785e-03  1.0753720044338639e-03  1.0753720005303134e-03  1.0753719975988962e-03  1.0753719954387751e-03  1.0753719938875533e-03  1.0753719928046138e-03  1.0753719920697669e-03  1.0753719915846146e-03  1.0753719912725221e-03  1.0753719910765775e-03  1.0753719909563065e-03  1.0753719908840158e-03  1.0753719908413997e-03  1.0753719908167241e-03  1.0753719908026716e-03  1.0753719907947963e-03  1.0753719907904383e-03  1.0753719907880539e-03  1.0753719907867724e-03  1.0753719907860922e-03  1.0753719907857409e-03  1.0753719907855759e-03  2.1488725334347734e-03  2.1488725334340799e-03  1.0753719907851630e-03  1.0753719907851749e-03  1.0753719907851790e-03  1.0753719907851738e-03  1.0753719907851639e-03  1.0753719907851504e-03  1.0753719907851389e-03  1.0753719907851339e-03  1.0753719907851383e-03  1.0753719907851649e-03  1.0753719907852306e-03  1.0753719907853660e-03  1.0753719907856370e-03  1.0753719907861743e-03  1.0753719907872395e-03  1.0753719907893840e-03  1.0753719907937854e-03  1.0753719908029710e-03  1.0753719908224804e-03  1.0753719908645702e-03  1.07537199095