<?xml version="1.0"?>
<VTKFile type="UnstructuredGrid"  version="0.1"  >
<UnstructuredGrid>
<Piece  NumberOfPoints="5151" NumberOfCells="10000">
<Points>
<DataArray  type="Float64"  NumberOfComponents="3"  format="ascii">0 0 0  0.02 0 0  0.04 0 0  0.06 0 0  0.08 0 0  0.1 0 0  0.12 0 0  0.14 0 0  0.16 0 0  0.18 0 0  0.2 0 0  0.22 0 0  0.24 0 0  0.26 0 0  0.28 0 0  0.3 0 0  0.32 0 0  0.34 0 0  0.36 0 0  0.38 0 0  0.4 0 0  0.42 0 0  0.44 0 0  0.46 0 0  0.48 0 0  0.5 0 0  0.52 0 0  0.54 0 0  0.5600000000000001 0 0  0.58 0 0  0.6 0 0  0.62 0 0  0.64 0 0  0.66 0 0  0.68 0 0  0.7 0 0  0.72 0 0  0.74 0 0  0.76 0 0  0.78 0 0  0.8 0 0  0.82 0 0  0.84 0 0  0.86 0 0  0.88 0 0  0.9 0 0  0.92 0 0  0.9399999999999999 0 0  0.96 0 0  0.98 0 0  1 0 0  1.02 0 0  1.04 0 0  1.06 0 0  1.08 0 0  1.1 0 0  1.12 0 0  1.14 0 0  1.16 0 0  1.18 0 0  1.2 0 0  1.22 0 0  1.24 0 0  1.26 0 0  1.28 0 0  1.3 0 0  1.32 0 0  1.34 0 0  1.36 0 0  1.38 0 0  1.4 0 0  1.42 0 0  1.44 0 0  1.46 0 0  1.48 0 0  1.5 0 0  1.52 0 0  1.54 0 0  1.56 0 0  1.58 0 0  1.6 0 0  1.62 0 0  1.64 0 0  1.66 0 0  1.68 0 0  1.7 0 0  1.72 0 0  1.74 0 0  1.76 0 0  1.78 0 0  1.8 0 0  1.82 0 0  1.84 0 0  1.86 0 0  1.88 0 0  1.9 0 0  1.92 0 0  1.94 0 0  1.96 0 0  1.98 0 0  2 0 0  0 0.02 0  0.02 0.02 0  0.04 0.02 0  0.06 0.02 0  0.08 0.02 0  0.1 0.02 0  0.12 0.02 0  0.14 0.02 0  0.16 0.02 0  0.18 0.02 0  0.2 0.02 0  0.22 0.02 0  0.24 0.02 0  0.26 0.02 0  0.28 0.02 0  0.3 0.02 0  0.32 0.02 0  0.34 0.02 0  0.36 0.02 0  0.38 0.02 0  0.4 0.02 0  0.42 0.02 0  0.44 0.02 0  0.46 0.02 0  0.48 0.02 0  0.5 0.02 0  0.52 0.02 0  0.54 0.02 0  0.5600000000000001 0.02 0  0.58 0.02 0  0.6 0.02 0  0.62 0.02 0  0.64 0.02 0  0.66 0.02 0  0.68 0.02 0  0.7 0.02 0  0.72 0.02 0  0.74 0.02 0  0.76 0.02 0  0.78 0.02 0  0.8 0.02 0  0.82 0.02 0  0.84 0.02 0  0.86 0.02 0  0.88 0.02 0  0.9 0.02 0  0.92 0.02 0  0.9399999999999999 0.02 0  0.96 0.02 0  0.98 0.02 0  1 0.02 0  1.02 0.02 0  1.04 0.02 0  1.06 0.02 0  1.08 0.02 0  1.1 0.02 0  1.12 0.02 0  1.14 0.02 0  1.16 0.02 0  1.18 0.02 0  1.2 0.02 0  1.22 0.02 0  1.24 0.02 0  1.26 0.02 0  1.28 0.02 0  1.3 0.02 0  1.32 0.02 0  1.34 0.02 0  1.36 0.02 0  1.38 0.02 0  1.4 0.02 0  1.42 0.02 0  1.44 0.02 0  1.46 0.02 0  1.48 0.02 0  1.5 0.02 0  1.52 0.02 0  1.54 0.02 0  1.56 0.02 0  1.58 0.02 0  1.6 0.02 0  1.62 0.02 0  1.64 0.02 0  1.66 0.02 0  1.68 0.02 0  1.7 0.02 0  1.72 0.02 0  1.74 0.02 0  1.76 0.02 0  1.78 0.02 0  1.8 0.02 0  1.82 0.02 0  1.84 0.02 0  1.86 0.02 0  1.88 0.02 0  1.9 0.02 0  1.92 0.02 0  1.94 0.02 0  1.96 0.02 0  1.98 0.02 0  2 0.02 0  0 0.04 0  0.02 0.04 0  0.04 0.04 0  0.06 0.04 0  0.08 0.04 0  0.1 0.04 0  0.12 0.04 0  0.14 0.04 0  0.16 0.04 0  0.18 0.04 0  0.2 0.04 0  0.22 0.04 0  0.24 0.04 0  0.26 0.04 0  0.28 0.04 0  0.3 0.04 0  0.32 0.04 0  0.34 0.04 0  0.36 0.04 0  0.38 0.04 0  0.4 0.04 0  0.42 0.04 0  0.44 0.04 0  0.46 0.04 0  0.48 0.04 0  0.5 0.04 0  0.52 0.04 0  0.54 0.04 0  0.5600000000000001 0.04 0  0.58 0.04 0  0.6 0.04 0  0.62 0.04 0  0.64 0.04 0  0.66 0.04 0  0.68 0.04 0  0.7 0.04 0  0.72 0.04 0  0.74 0.04 0  0.76 0.04 0  0.78 0.04 0  0.8 0.04 0  0.82 0.04 0  0.84 0.04 0  0.86 0.04 0  0.88 0.04 0  0.9 0.04 0  0.92 0.04 0  0.9399999999999999 0.04 0  0.96 0.04 0  0.98 0.04 0  1 0.04 0  1.02 0.04 0  1.04 0.04 0  1.06 0.04 0  1.08 0.04 0  1.1 0.04 0  1.12 0.04 0  1.14 0.04 0  1.16 0.04 0  1.18 0.04 0  1.2 0.04 0  1.22 0.04 0  1.24 0.04 0  1.26 0.04 0  1.28 0.04 0  1.3 0.04 0  1.32 0.04 0  1.34 0.04 0  1.36 0.04 0  1.38 0.04 0  1.4 0.04 0  1.42 0.04 0  1.44 0.04 0  1.46 0.04 0  1.48 0.04 0  1.5 0.04 0  1.52 0.04 0  1.54 0.04 0  1.56 0.04 0  1.58 0.04 0  1.6 0.04 0  1.62 0.04 0  1.64 0.04 0  1.66 0.04 0  1.68 0.04 0  1.7 0.04 0  1.72 0.04 0  1.74 0.04 0  1.76 0.04 0  1.78 0.04 0  1.8 0.04 0  1.82 0.04 0  1.84 0.04 0  1.86 0.04 0  1.88 0.04 0  1.9 0.04 0  1.92 0.04 0  1.94 0.04 0  1.96 0.04 0  1.98 0.04 0  2 0.04 0  0 0.06 0  0.02 0.06 0  0.04 0.06 0  0.06 0.06 0  0.08 0.06 0  0.1 0.06 0  0.12 0.06 0  0.14 0.06 0  0.16 0.06 0  0.18 0.06 0  0.2 0.06 0  0.22 0.06 0  0.24 0.06 0  0.26 0.06 0  0.28 0.06 0  0.3 0.06 0  0.32 0.06 0  0.34 0.06 0  0.36 0.06 0  0.38 0.06 0  0.4 0.06 0  0.42 0.06 0  0.44 0.06 0  0.46 0.06 0  0.48 0.06 0  0.5 0.06 0  0.52 0.06 0  0.54 0.06 0  0.5600000000000001 0.06 0  0.58 0.06 0  0.6 0.06 0  0.62 0.06 0  0.64 0.06 0  0.66 0.06 0  0.68 0.06 0  0.7 0.06 0  0.72 0.06 0  0.74 0.06 0  0.76 0.06 0  0.78 0.06 0  0.8 0.06 0  0.82 0.06 0  0.84 0.06 0  0.86 0.06 0  0.88 0.06 0  0.9 0.06 0  0.92 0.06 0  0.9399999999999999 0.06 0  0.96 0.06 0  0.98 0.06 0  1 0.06 0  1.02 0.06 0  1.04 0.06 0  1.06 0.06 0  1.08 0.06 0  1.1 0.06 0  1.12 0.06 0  1.14 0.06 0  1.16 0.06 0  1.18 0.06 0  1.2 0.06 0  1.22 0.06 0  1.24 0.06 0  1.26 0.06 0  1.28 0.06 0  1.3 0.06 0  1.32 0.06 0  1.34 0.06 0  1.36 0.06 0  1.38 0.06 0  1.4 0.06 0  1.42 0.06 0  1.44 0.06 0  1.46 0.06 0  1.48 0.06 0  1.5 0.06 0  1.52 0.06 0  1.54 0.06 0  1.56 0.06 0  1.58 0.06 0  1.6 0.06 0  1.62 0.06 0  1.64 0.06 0  1.66 0.06 0  1.68 0.06 0  1.7 0.06 0  1.72 0.06 0  1.74 0.06 0  1.76 0.06 0  1.78 0.06 0  1.8 0.06 0  1.82 0.06 0  1.84 0.06 0  1.86 0.06 0  1.88 0.06 0  1.9 0.06 0  1.92 0.06 0  1.94 0.06 0  1.96 0.06 0  1.98 0.06 0  2 0.06 0  0 0.08 0  0.02 0.08 0  0.04 0.08 0  0.06 0.08 0  0.08 0.08 0  0.1 0.08 0  0.12 0.08 0  0.14 0.08 0  0.16 0.08 0  0.18 0.08 0  0.2 0.08 0  0.22 0.08 0  0.24 0.08 0  0.26 0.08 0  0.28 0.08 0  0.3 0.08 0  0.32 0.08 0  0.34 0.08 0  0.36 0.08 0  0.38 0.08 0  0.4 0.08 0  0.42 0.08 0  0.44 0.08 0  0.46 0.08 0  0.48 0.08 0  0.5 0.08 0  0.52 0.08 0  0.54 0.08 0  0.5600000000000001 0.08 0  0.58 0.08 0  0.6 0.08 0  0.62 0.08 0  0.64 0.08 0  0.66 0.08 0  0.68 0.08 0  0.7 0.08 0  0.72 0.08 0  0.74 0.08 0  0.76 0.08 0  0.78 0.08 0  0.8 0.08 0  0.82 0.08 0  0.84 0.08 0  0.86 0.08 0  0.88 0.08 0  0.9 0.08 0  0.92 0.08 0  0.9399999999999999 0.08 0  0.96 0.08 0  0.98 0.08 0  1 0.08 0  1.02 0.08 0  1.04 0.08 0  1.06 0.08 0  1.08 0.08 0  1.1 0.08 0  1.12 0.08 0  1.14 0.08 0  1.16 0.08 0  1.18 0.08 0  1.2 0.08 0  1.22 0.08 0  1.24 0.08 0  1.26 0.08 0  1.28 0.08 0  1.3 0.08 0  1.32 0.08 0  1.34 0.08 0  1.36 0.08 0  1.38 0.08 0  1.4 0.08 0  1.42 0.08 0  1.44 0.08 0  1.46 0.08 0  1.48 0.08 0  1.5 0.08 0  1.52 0.08 0  1.54 0.08 0  1.56 0.08 0  1.58 0.08 0  1.6 0.08 0  1.62 0.08 0  1.64 0.08 0  1.66 0.08 0  1.68 0.08 0  1.7 0.08 0  1.72 0.08 0  1.74 0.08 0  1.76 0.08 0  1.78 0.08 0  1.8 0.08 0  1.82 0.08 0  1.84 0.08 0  1.86 0.08 0  1.88 0.08 0  1.9 0.08 0  1.92 0.08 0  1.94 0.08 0  1.96 0.08 0  1.98 0.08 0  2 0.08 0  0 0.1 0  0.02 0.1 0  0.04 0.1 0  0.06 0.1 0  0.08 0.1 0  0.1 0.1 0  0.12 0.1 0  0.14 0.1 0  0.16 0.1 0  0.18 0.1 0  0.2 0.1 0  0.22 0.1 0  0.24 0.1 0  0.26 0.1 0  0.28 0.1 0  0.3 0.1 0  0.32 0.1 0  0.34 0.1 0  0.36 0.1 0  0.38 0.1 0  0.4 0.1 0  0.42 0.1 0  0.44 0.1 0  0.46 0.1 0  0.48 0.1 0  0.5 0.1 0  0.52 0.1 0  0.54 0.1 0  0.5600000000000001 0.1 0  0.58 0.1 0  0.6 0.1 0  0.62 0.1 0  0.64 0.1 0  0.66 0.1 0  0.68 0.1 0  0.7 0.1 0  0.72 0.1 0  0.74 0.1 0  0.76 0.1 0  0.78 0.1 0  0.8 0.1 0  0.82 0.1 0  0.84 0.1 0  0.86 0.1 0  0.88 0.1 0  0.9 0.1 0  0.92 0.1 0  0.9399999999999999 0.1 0  0.96 0.1 0  0.98 0.1 0  1 0.1 0  1.02 0.1 0  1.04 0.1 0  1.06 0.1 0  1.08 0.1 0  1.1 0.1 0  1.12 0.1 0  1.14 0.1 0  1.16 0.1 0  1.18 0.1 0  1.2 0.1 0  1.22 0.1 0  1.24 0.1 0  1.26 0.1 0  1.28 0.1 0  1.3 0.1 0  1.32 0.1 0  1.34 0.1 0  1.36 0.1 0  1.38 0.1 0  1.4 0.1 0  1.42 0.1 0  1.44 0.1 0  1.46 0.1 0  1.48 0.1 0  1.5 0.1 0  1.52 0.1 0  1.54 0.1 0  1.56 0.1 0  1.58 0.1 0  1.6 0.1 0  1.62 0.1 0  1.64 0.1 0  1.66 0.1 0  1.68 0.1 0  1.7 0.1 0  1.72 0.1 0  1.74 0.1 0  1.76 0.1 0  1.78 0.1 0  1.8 0.1 0  1.82 0.1 0  1.84 0.1 0  1.86 0.1 0  1.88 0.1 0  1.9 0.1 0  1.92 0.1 0  1.94 0.1 0  1.96 0.1 0  1.98 0.1 0  2 0.1 0  0 0.12 0  0.02 0.12 0  0.04 0.12 0  0.06 0.12 0  0.08 0.12 0  0.1 0.12 0  0.12 0.12 0  0.14 0.12 0  0.16 0.12 0  0.18 0.12 0  0.2 0.12 0  0.22 0.12 0  0.24 0.12 0  0.26 0.12 0  0.28 0.12 0  0.3 0.12 0  0.32 0.12 0  0.34 0.12 0  0.36 0.12 0  0.38 0.12 0  0.4 0.12 0  0.42 0.12 0  0.44 0.12 0  0.46 0.12 0  0.48 0.12 0  0.5 0.12 0  0.52 0.12 0  0.54 0.12 0  0.5600000000000001 0.12 0  0.58 0.12 0  0.6 0.12 0  0.62 0.12 0  0.64 0.12 0  0.66 0.12 0  0.68 0.12 0  0.7 0.12 0  0.72 0.12 0  0.74 0.12 0  0.76 0.12 0  0.78 0.12 0  0.8 0.12 0  0.82 0.12 0  0.84 0.12 0  0.86 0.12 0  0.88 0.12 0  0.9 0.12 0  0.92 0.12 0  0.9399999999999999 0.12 0  0.96 0.12 0  0.98 0.12 0  1 0.12 0  1.02 0.12 0  1.04 0.12 0  1.06 0.12 0  1.08 0.12 0  1.1 0.12 0  1.12 0.12 0  1.14 0.12 0  1.16 0.12 0  1.18 0.12 0  1.2 0.12 0  1.22 0.12 0  1.24 0.12 0  1.26 0.12 0  1.28 0.12 0  1.3 0.12 0  1.32 0.12 0  1.34 0.12 0  1.36 0.12 0  1.38 0.12 0  1.4 0.12 0  1.42 0.12 0  1.44 0.12 0  1.46 0.12 0  1.48 0.12 0  1.5 0.12 0  1.52 0.12 0  1.54 0.12 0  1.56 0.12 0  1.58 0.12 0  1.6 0.12 0  1.62 0.12 0  1.64 0.12 0  1.66 0.12 0  1.68 0.12 0  1.7 0.12 0  1.72 0.12 0  1.74 0.12 0  1.76 0.12 0  1.78 0.12 0  1.8 0.12 0  1.82 0.12 0  1.84 0.12 0  1.86 0.12 0  1.88 0.12 0  1.9 0.12 0  1.92 0.12 0  1.94 0.12 0  1.96 0.12 0  1.98 0.12 0  2 0.12 0  0 0.14 0  0.02 0.14 0  0.04 0.14 0  0.06 0.14 0  0.08 0.14 0  0.1 0.14 0  0.12 0.14 0  0.14 0.14 0  0.16 0.14 0  0.18 0.14 0  0.2 0.14 0  0.22 0.14 0  0.24 0.14 0  0.26 0.14 0  0.28 0.14 0  0.3 0.14 0  0.32 0.14 0  0.34 0.14 0  0.36 0.14 0  0.38 0.14 0  0.4 0.14 0  0.42 0.14 0  0.44 0.14 0  0.46 0.14 0  0.48 0.14 0  0.5 0.14 0  0.52 0.14 0  0.54 0.14 0  0.5600000000000001 0.14 0  0.58 0.14 0  0.6 0.14 0  0.62 0.14 0  0.64 0.14 0  0.66 0.14 0  0.68 0.14 0  0.7 0.14 0  0.72 0.14 0  0.74 0.14 0  0.76 0.14 0  0.78 0.14 0  0.8 0.14 0  0.82 0.14 0  0.84 0.14 0  0.86 0.14 0  0.88 0.14 0  0.9 0.14 0  0.92 0.14 0  0.9399999999999999 0.14 0  0.96 0.14 0  0.98 0.14 0  1 0.14 0  1.02 0.14 0  1.04 0.14 0  1.06 0.14 0  1.08 0.14 0  1.1 0.14 0  1.12 0.14 0  1.14 0.14 0  1.16 0.14 0  1.18 0.14 0  1.2 0.14 0  1.22 0.14 0  1.24 0.14 0  1.26 0.14 0  1.28 0.14 0  1.3 0.14 0  1.32 0.14 0  1.34 0.14 0  1.36 0.14 0  1.38 0.14 0  1.4 0.14 0  1.42 0.14 0  1.44 0.14 0  1.46 0.14 0  1.48 0.14 0  1
[...]
<PointData  Scalars="sols[i]"> 
<DataArray  type="Float64"  Name="sols[i]"  format="ascii">7.6122277375515621e-02  4.7346413179175990e-02  4.7346413280304006e-02  4.7346413465258225e-02  4.7346413769752231e-02  4.7346414238495754e-02  4.7346414920689958e-02  4.7346415865023903e-02  4.7346417115662648e-02  4.7346418709463767e-02  4.7346420674012346e-02  4.7346423025920722e-02  4.7346425768928391e-02  4.7346428891497275e-02  4.7346432363768204e-02  4.7346436133920623e-02  4.7346440124162059e-02  4.7346444226811578e-02  4.7346448301243613e-02  4.7346452172840857e-02  4.7346455635605710e-02  4.7346458460672161e-02  4.7346460413675198e-02  4.7346461284695877e-02  4.7346460935271867e-02  4.7346459367596183e-02  4.7346456821310251e-02  4.7346453902934266e-02  4.7346451751510227e-02  4.7346452240859697e-02  4.7346458213289803e-02  4.7346473730735313e-02  4.7346504316480735e-02  4.7346557143216589e-02  4.7346641101560602e-02  4.7346766659523698e-02  4.7346945403823788e-02  4.7347189151244820e-02  4.7347508555385442e-02  4.7347911250023751e-02  4.7348399826275159e-02  4.7348970402736917e-02  4.7349613142391299e-02  4.7350316057008665e-02  4.7351070739128552e-02  4.7351873828665028e-02  4.7352718519487053e-02  4.7353578856959136e-02  4.7354404472341335e-02  4.7355136556245722e-02  4.7355725965761757e-02  4.7356110680620067e-02  4.7356198278371994e-02  4.7355924379592518e-02  4.7355297313823569e-02  4.7354387811308726e-02  4.7353301344064652e-02  4.7352146609037971e-02  4.7351017958008682e-02  4.7349987246716518e-02  4.7349099166910547e-02  4.7348371541523090e-02  4.7347800826386240e-02  4.7347370007117806e-02  4.7347055888901354e-02  4.7346834296779584e-02  4.7346683083317222e-02  4.7346583479858068e-02  4.7346520415857837e-02  4.7346482287990585e-02  4.7346460485482481e-02  4.7346448844398786e-02  4.7346443119689441e-02  4.7346440516275033e-02  4.7346439294873532e-02  4.7346438454662437e-02  4.7346437487632509e-02  4.7346436195790903e-02  4.7346434560798401e-02  4.7346432655439780e-02  4.7346430587024611e-02  4.7346428464058843e-02  4.7346426379021971e-02  4.7346424401635154e-02  4.7346422578419388e-02  4.7346420935599716e-02  4.7346419483395755e-02  4.7346418220497698e-02  4.7346417138071265e-02  4.7346416222987360e-02  4.7346415460199832e-02  4.7346414834308299e-02  4.7346414330402237e-02  4.7346413934313290e-02  4.7346413632425560e-02  4.7346413411261917e-02  4.7346413257135345e-02  4.7346413156269557e-02  4.7346413095793870e-02  4.7346413065790405e-02  1.4706127022133600e-01  4.7346413176899561e-02  1.4576696538546494e-02  1.4576696561483641e-02  1.4576696602761355e-02  1.4576696668472958e-02  1.4576696766435747e-02  1.4576696905515744e-02  1.4576697094752029e-02  1.4576697342544851e-02  1.4576697656012366e-02  1.4576698040498163e-02  1.4576698499153795e-02  1.4576699032517940e-02  1.4576699638038220e-02  1.4576700309506424e-02  1.4576701036419370e-02  1.4576701803313398e-02  1.4576702589170093e-02  1.4576703367051578e-02  1.4576704104200694e-02  1.4576704762935601e-02  1.4576705302783051e-02  1.4576705684425760e-02  1.4576705876180289e-02  1.4576705863861847e-02  1.4576705665010516e-02  1.4576705348514109e-02  1.4576705060634427e-02  1.4576705058273867e-02  1.4576705749961311e-02  1.4576707744475554e-02  1.4576711906246235e-02  1.4576719415747752e-02  1.4576731832025885e-02  1.4576751153085904e-02  1.4576779867349950e-02  1.4576820983922056e-02  1.4576878018218494e-02  1.4576954891414405e-02  1.4577055686960078e-02  1.4577184237263631e-02  1.4577343681342161e-02  1.4577536508037441e-02  1.4577765804491131e-02  1.4578036820868556e-02  1.4578354281802409e-02  1.4578712668490800e-02  1.4579085639978989e-02  1.4579427454531476e-02  1.4579694682382299e-02  1.4579875171141043e-02  1.4579975002429862e-02  1.4579976271468127e-02  1.4579855119082512e-02  1.4579611896106589e-02  1.4579272704205578e-02  1.4578879494547239e-02  1.4578473808456928e-02  1.4578089524594613e-02  1.4577750498272091e-02  1.4577469146830410e-02  1.4577247390168460e-02  1.4577079843732889e-02  1.4576957532343518e-02  1.4576870753051431e-02  1.4576810706429650e-02  1.4576770141108130e-02  1.4576743415009303e-02  1.4576726294919389e-02  1.4576715683296911e-02  1.4576709359231069e-02  1.4576705762286380e-02  1.4576703821624295e-02  1.4576702823895534e-02  1.4576702312088855e-02  1.4576702008699989e-02  1.4576701758064971e-02  1.4576701483865296e-02  1.4576701158607180e-02  1.4576700782430740e-02  1.4576700369026196e-02  1.4576699936803193e-02  1.4576699503795953e-02  1.4576699085106441e-02  1.4576698691967952e-02  1.4576698331764957e-02  1.4576698008547297e-02  1.4576697723738407e-02  1.4576697476854502e-02  1.4576697266139031e-02  1.4576697089067997e-02  1.4576696942717788e-02  1.4576696824005368e-02  1.4576696729822173e-02  1.4576696657086918e-02  1.4576696602753795e-02  1.4576696563813519e-02  1.4576696537336490e-02  1.4576696520622210e-02  1.4576696511557023e-02  4.7346413064672042e-02  4.7346413270330984e-02  1.4576696559893553e-02  1.4576696587044791e-02  1.4576696632436457e-02  1.4576696699173750e-02  1.4576696791047434e-02  1.4576696912253237e-02  1.4576697067133869e-02  1.4576697259814730e-02  1.4576697493779850e-02  1.4576697771447628e-02  1.4576698093771195e-02  1.4576698459863428e-02  1.4576698866637336e-02  1.4576699308464398e-02  1.4576699776875134e-02  1.4576700260360859e-02  1.4576700744370567e-02  1.4576701211650413e-02  1.4576701643131311e-02  1.4576702019634175e-02  1.4576702324741370e-02  1.4576702549259012e-02  1.4576702697768987e-02  1.4576702797828626e-02  1.4576702912407721e-02  1.4576703156151092e-02  1.4576703716010012e-02  1.4576704876757994e-02  1.4576707051965898e-02  1.4576710821415866e-02  1.4576716977056602e-02  1.4576726582047866e-02  1.4576741051767782e-02  1.4576762271749323e-02  1.4576792772877475e-02  1.4576835980996565e-02  1.4576896529834892e-02  1.4576980549445163e-02  1.4577095710446228e-02  1.4577250706937016e-02  1.4577454138867452e-02  1.4577714009510169e-02  1.4578040874159703e-02  1.4578453653707206e-02  1.4578972444500730e-02  1.4579588452893893e-02  1.4580234463595224e-02  1.4580795643768477e-02  1.4581181030300112e-02  1.4581421516964767e-02  1.4581603818473074e-02  1.4581676225436954e-02  1.4581534572523203e-02  1.4581151445516194e-02  1.4580577805512498e-02  1.4579909693514298e-02  1.4579233477794657e-02  1.4578613292578608e-02  1.4578090067326169e-02  1.4577678933149655e-02  1.4577373647753899e-02  1.4577156185703766e-02  1.4577005547576532e-02  1.4576902958986730e-02  1.4576833759188404e-02  1.4576787351969947e-02  1.4576756395991132e-02  1.4576735897907672e-02  1.4576722470627997e-02  1.4576713803949379e-02  1.4576708311288248e-02  1.4576704899739145e-02  1.4576702819512500e-02  1.4576701562659064e-02  1.4576700792513473e-02  1.4576700293005144e-02  1.4576699931578218e-02  1.4576699631984241e-02  1.4576699354530454e-02  1.4576699082054759e-02  1.4576698810281357e-02  1.4576698541466274e-02  1.4576698280439830e-02  1.4576698032331753e-02  1.4576697801418010e-02  1.4576697590678483e-02  1.4576697401763294e-02  1.4576697235167716e-02  1.4576697090487031e-02  1.4576696966675204e-02  1.4576696862269539e-02  1.4576696775569459e-02  1.4576696704769330e-02  1.4576696648055899e-02  1.4576696603680835e-02  1.4576696570010490e-02  1.4576696545547489e-02  1.4576696528945953e-02  1.4576696519204086e-02  4.7346413089511000e-02  4.7346413436545172e-02  1.4576696597132514e-02  1.4576696628086474e-02  1.4576696676872098e-02  1.4576696744199907e-02  1.4576696830660084e-02  1.4576696936570072e-02  1.4576697062232488e-02  1.4576697208014676e-02  1.4576697374188088e-02  1.4576697560630668e-02  1.4576697766494923e-02  1.4576697989911779e-02  1.4576698227766681e-02  1.4576698475583282e-02  1.4576698727555439e-02  1.4576698976794060e-02  1.4576699215884819e-02  1.4576699437891047e-02  1.4576699637976672e-02  1.4576699815864569e-02  1.4576699979387838e-02  1.4576700149419895e-02  1.4576700366487949e-02  1.4576700699372622e-02  1.4576701255982800e-02  1.4576702196785299e-02  1.4576703751149929e-02  1.4576706237297444e-02  1.4576710087475932e-02  1.4576715882202418e-02  1.4576724402041235e-02  1.4576736714171035e-02  1.4576754325927312e-02  1.4576779459414629e-02  1.4576815525627760e-02  1.4576867884067099e-02  1.4576944915296472e-02  1.4577059217172443e-02  1.4577228259095788e-02  1.4577473192719282e-02  1.4577814681480804e-02  1.4578268466344206e-02  1.4578853529675530e-02  1.4579617890328312e-02  1.4580623402281169e-02  1.4581845267085542e-02  1.4583085482278359e-02  1.4584045395097289e-02  1.4584530492362635e-02  1.4584763526115378e-02  1.4585207515286351e-02  1.4585691702013166e-02  1.4585722920747401e-02  1.4585108756317590e-02  1.4583976346236141e-02  1.4582607041032416e-02  1.4581222331221446e-02  1.4579975651453017e-02  1.4578962117925700e-02  1.4578206940343978e-02  1.4577681300537817e-02  1.4577332602742283e-02  1.4577107905251704e-02  1.4576964836238644e-02  1.4576873558036748e-02  1.4576814643297248e-02  1.4576776010106032e-02  1.4576750294176519e-02  1.4576732996616507e-02  1.4576721311879707e-02  1.4576713433409962e-02  1.4576708157308459e-02  1.4576704658531827e-02  1.4576702362248048e-02  1.4576700866377312e-02  1.4576699891745313e-02  1.4576699247741508e-02  1.4576698807402286e-02  1.4576698488835005e-02  1.4576698241305893e-02  1.4576698034944706e-02  1.4576697853302050e-02  1.4576697688135510e-02  1.4576697535894443e-02  1.4576697395455186e-02  1.4576697266746782e-02  1.4576697149977350e-02  1.4576697045247522e-02  1.4576696952399298e-02  1.4576696870995482e-02  1.4576696800366787e-02  1.4576696739689613e-02  1.4576696688080117e-02  1.4576696644691984e-02  1.4576696608814563e-02  1.4576696579941305e-02  1.4576696557768609e-02  1.4576696542071544e-02  1.4576696532552565e-02  4.7346413137521991e-02  4.7346413700112132e-02  1.4576696653983451e-02  1.4576696685229115e-02  1.4576696734165055e-02  1.4576696799840961e-02  1.4576696880565725e-02  1.4576696973935680e-02  1.4576697077442444e-02  1.4576697188844202e-02  1.4576697306205302e-02  1.4576697427724236e-02  1.4576697551493073e-02  1.4576697675300164e-02  1.4576697796548294e-02  1.4576697912342033e-02  1.4576698019805505e-02  1.4576698116702891e-02  1.4576698202459810e-02  1.4576698279709451e-02  1.4576698356516165e-02  1.4576698449447182e-02  1.4576698587677222e-02  1.4576698818310658e-02  1.4576699213083751e-02  1.4576699876584621e-02  1.4576700956123631e-02  1.4576702653472599e-02  1.4576705239067463e-02  1.4576709070305080e-02  1.4576714618044991e-02  1.4576722510840266e-02  1.4576733617370516e-02  1.4576749208350162e-02  1.4576771275762507e-02  1.4576803145228573e-02  1.4576850593745692e-02  1.4576923745939184e-02  1.4577039952269463e-02  1.4577227373351705e-02  1.4577527611322612e-02  1.4577993056554259e-02  1.4578672310997564e-02  1.4579585473391986e-02  1.4580737620297032e-02  1.4582220829737178e-02  1.4584193456500220e-02  1.4586526148720474e-02  1.4588561092780485e-02  3.1264244777899936e-02  4.7408876304996267e-02  4.7410394077946880e-02  4.7419225341691046e-02  3.1277749171920249e-02  1.4594169501487973e-02  1.4593795046528598e-02  1.4591671597073847e-02  1.4588747317005898e-02  1.4585705946922631e-02  1.4582977953555898e-02  1.4580824876002660e-02  1.4579294754068892e-02  1.4578289871906108e-02  1.4577665186736782e-02  1.4577289558305671e-02  1.4577066662927572e-02  1.4576933698644635e-02  1.4576852700625283e-02  1.4576801788508871e-02  1.4576768668704906e-02  1.4576746461221469e-02  1.4576731244497822e-02  1.4576720693529497e-02  1.4576713354041012e-02  1.4576708264506895e-02  1.4576704759875398e-02  1.4576702367035028e-02  1.4576700745661786e-02  1.4576699651550912e-02  1.4576698911562790e-02  1.4576698405179559e-02  1.4576698050389471e-02  1.4576697792792599e-02  1.4576697597286473e-02  1.4576697441864725e-02  1.4576697313120800e-02  1.4576697203092463e-02  1.4576697107126769e-02  1.4576697022487886e-02  1.4576696947489594e-02  1.4576696880981203e-02  1.4576696822066634e-02  1.4576696769968644e-02  1.4576696723990179e-02  1.4576696683536556e-02  1.4576696648182862e-02  1.4576696617765032e-02  1.4576696592461469e-02  1.4576696572790898e-02  1.4576696559350084e-02  1.4576696551958103e-02  4.7346413211682412e-02  4.7346414086475289e-02  1.4576696734360132e-02  1.4576696758637295e-02  1.4576696801503843e-02  1.4576696861133337e-02  1.4576696933881547e-02  1.4576697015255899e-02  1.4576697100826983e-02  1.4576697186703002e-02  1.4576697269642013e-02  1.4576697346951051e-02  1.4576697416327914e-02  1.4576697475765683e-02  1.4576697523605412e-02  1.4576697558808076e-02  1.4576697581512532e-02  1.4576697593964957e-02  1.4576697601914374e-02  1.4576697616596161e-02  1.4576697657435748e-02  1.4576697755613179e-02  1.4576697958620898e-02  1.4576698335928479e-02  1.4576698985832156e-02  1.4576700043553138e-02  1.4576701690712110e-02  1.4576704166613910e-02  1.4576707782673918e-02  1.4576712943545411e-02  1.4576720183565350e-02  1.4576730237975222e-02  1.4576744190530514e-02  1.4576763782458506e-02  1.4576792048198652e-02  1.4576834582430536e-02  1.4576901956746498e-02  1.4577014061037804e-02  1.4577207239378873e-02  1.4577544345068579e-02  1.4578124540971063e-02  1.4579080582592517e-02  1.4580534312358329e-02  1.4582480576508688e-02  1.4584756195271165e-02  1.4587379883691340e-02  1.4590659247198027e-02  3.1276827050304726e-02  4.7437676848559499e-02  7.6300762243541709e-02  5.0304866998907682e-01  5.0283025540018667e-01  5.0314598570755020e-01  5.0422292272099245e-01  7.6453427307360419e-02  3.1329920964032074e-02  1.4607515711003690e-02  1.4601958422227047e-02  1.4595303388357756e-02  1.4589197301053678e-02  1.4584512876915911e-02  1.4581345324386537e-02  1.4579381567375052e-02  1.4578232454870976e-02  1.4577583093340653e-02  1.4577221491097157e-02  1.4577019151743136e-02  1.4576903212731305e-02  1.4576834106911768e-02  1.4576790884972431e-02  1.4576762542756288e-02  1.4576743230523584e-02  1.4576729727889677e-02  1.4576720157545409e-02  1.4576713345338757e-02  1.4576708505521873e-02  1.4576705084743045e-02  1.4576702681676646e-02  1.4576701002174158e-02  1.4576699831241659e-02  1.4576699013454366e-02  1.4576698438174237e-02  1.4576698028008882e-02  1.4576697729774867e-02  1.4576697507530156e-02  1.4576697337327192e-02  1.4576697203366728e-02  1.4576697095262606e-02  1.4576697006150096e-02  1.4576696931416069e-02  1.4576696867871611e-02  1.4576696813232037e-02  1.4576696765804809e-02  1.4576696724322592e-02  1.4576696687879274e-02  1.4576696655945361e-02  1.4576696628445539e-02  1.4576696605864021e-02  1.4576696589282918e-02  1.4576696579977158e-02  1.4576696577383625e-02  4.7346413313022244e-02  4.7346414614772861e-02  1.4576696841307126e-02  1.4576696847764649e-02  1.4576696875369192e-02  1.4576696922454436e-02  1.4576696983246037e-02  1.4576697051232643e-02  1.4576697120501766e-02  1.4576697186144559e-02  1.4576697244284871e-02  1.4576697291963342e-02  1.4576697327021038e-02  1.4576697348088887e-02  1.4576697354761282e-02  1.4576697348027001e-02  1.4576697331030885e-02  1.4576697310253977e-02  1.4576697297212438e-02  1.4576697310790299e-02  1.4576697380328074e-02  1.4576697549586019e-02  1.4576697881680579e-02  1.4576698465065981e-02  1.4576699420604839e-02  1.4576700909803429e-02  1.4576703144491776e-02  1.4576706398891054e-02  1.4576711026728462e-02  1.4576717490134549e-02  1.4576726416159853e-02  1.4576738716394057e-02  1.4576755846272521e-02  1.4576780364258343e-02  1.4576817115438630e-02  1.4576875672666719e-02  1.4576975208150940e-02  1.4577153798521503e-02  1.4577485093954679e-02  1.4578105117788485e-02  1.4579246363819274e-02  1.4581252086870462e-02  1.4584465713859815e-02  1.4588747509461382e-02  1.4593092577626124e-02  1.4596513781607331e-02  3.1292650337106445e-02  7.6371695412507545e-02  5.0416565396711488e-01  5.0313499245124471e-01  5.0256193759354240e-01  5.0204784626234855e-01  5.0227812025032159e-01  5.0302766243426233e-01  5.0584999760509120e-01  5.0925577717918868e-01  4.7653130136598519e-02  1.4628527464251993e-02  1.4615225012922273e-02  1.4601615980636876e-02  1.4591458213904195e-02  1.4584981426467436e-02  1.4581211273658152e-02  1.4579134880346092e-02  1.4578027262510179e-02  1.4577444110723479e-02  1.4577135534146980e-02  1.4576968285766503e-02  1.4576873709065689e-02  1.4576817142834065e-02  1.4576781215434176e-02  1.4576757147460623e-02  1.4576740373099093e-02  1.4576728389968659e-02  1.4576719722527729e-02  1.4576713427873778e-02  1.4576708859990515e-02  1.4576705554734599e-02  1.4576703170332071e-02  1.4576701453291246e-02  1.4576700216282216e-02  1.4576699322170591e-02  1.4576698671754026e-02  1.4576698194131430e-02  1.4576697839171350e-02  1.4576697571714904e-02  1.4576697367214092e-02  1.4576697208528737e-02  1.4576697083629951e-02  1.4576696983988911e-02  1.4576696903472752e-02  1.4576696837600997e-02  1.4576696783059642e-02  1.4576696737400401e-02  1.4576696698879595e-02  1.4576696666412920e-02  1.4576696639638743e-02  1.4576696619065816e-02  1.4576696606186709e-02  1.4576696602918996e-02  1.4576696607951849e-02  4.7346413437537621e-02  4.7346415290956935e-02  1.4576696975844086e-02  1.4576696951197529e-02  1.4576696952215838e-02  1.4576696978784420e-02  1.4576697022561872e-02  1.4576697074715813e-02  1.4576697127929148e-02  1.4576697176609237e-02  1.4576697216688349e-02  1.4576697245394055e-02  1.4576697261118545e-02  1.4576697263459729e-02  1.4576697253491082e-02  1.4576697234323661e-02  1.4576697212033524e-02  1.4576697197044762e-02  1.4576697206069068e-02  1.4576697264716372e-02  1.4576697410893300e-02  1.4576697699092273e-02  1.4576698205655146e-02  1.4576699035066677e-02  1.4576700327332723e-02  1.4576702266610975e-02  1.4576705091685809e-02  1.4576709110043830e-02  1.4576714720213234e-02  1.4576722453751261e-02  1.4576733063341892e-02  1.4576747716472733e-02  1.4576768425126809e-02  1.4576798991960365e-02  1.4576847064329979e-02  1.4576928514848195e-02  1.4577076584305409e-02  1.4577360436941859e-02  1.4577921331905946e-02  1.4579038648705514e-02  1.4581235598659266e-02  1.4585391466818949e-02  1.4592566069922206e-02  1.4602237479274955e-02  1.4610037077935473e-02  3.1328330341831030e-02  7.6400893730673922e-02  5.0432783063258613e-01  5.0381923667858430e-01  4.9999971179469160e-01  4.9999971179633129e-01  4.9999971180155983e-01  4.9999971180143488e-01  4.9999971179396402e-01  4.9999971178605690e-01  5.0614329100913535e-01  5.1268590639028255e-01  4.7860535978584903e-02  1.4654369899890819e-02  1.4625283914588512e-02  1.4603782411994747e-02  1.4590997871177694e-02  1.4584061942701473e-02  1.4580471468193232e-02  1.4578657071942999e-02  1.4577747391218495e-02  1.4577287905037690e-02  1.4577050089479866e-02  1.4576921613966311e-02  1.4576847959019291e-02  1.4576802754451283e-02  1.4576773142948156e-02  1.4576752703203612e-02  1.4576738079315215e-02  1.4576727393353516e-02  1.4576719502994363e-02  1.4576713654338044e-02  1.4576709317184985e-02  1.4576706103573497e-02  1.4576703724131562e-02  1.4576701961871394e-02  1.4576700654509500e-02  1.4576699681454796e-02  1.4576698953776694e-02  1.4576698406353743e-02  1.4576697991747161e-02  1.4576697675487348e-02  1.4576697432514260e-02  1.4576697244540329e-02  1.4576697098132446e-02  1.4576696983341591e-02  1.4576696892737015e-02  1.4576696820738456e-02  1.4576696763171096e-02  1.4576696716996402e-02  1.4576696680198177e-02  1.4576696651828558e-02  1.4576696632205512e-02  1.4576696623118311e-02  1.4576696627105286e-02  1.4576696641896173e-02  4.7346413575173288e-02  4.7346416103525760e-02  1.4576697136112959e-02  1.4576697066462845e-02  1.4576697028917410e-02  1.4576697026581561e-02  1.4576697048068070e-02  1.4576697081763014e-02  1.4576697118810216e-02  1.4576697153046311e-02  1.4576697180458665e-02  1.4576697198754974e-02  1.4576697207160261e-02  1.4576697206470339e-02  1.4576697199384677e-02  1.4576697191168492e-02  1.4576697190707970e-02  1.4576697212050948e-02  1.4576697276534574e-02  1.4576697415615854e-02  1.4576697674518503e-02  1.4576698116797708e-02  1.45766988298