<?xml version="1.0"?>
<VTKFile type="UnstructuredGrid"  version="0.1"  >
<UnstructuredGrid>
<Piece  NumberOfPoints="5151" NumberOfCells="10000">
<Points>
<DataArray  type="Float64"  NumberOfComponents="3"  format="ascii">0 0 0  0.02 0 0  0.04 0 0  0.06 0 0  0.08 0 0  0.1 0 0  0.12 0 0  0.14 0 0  0.16 0 0  0.18 0 0  0.2 0 0  0.22 0 0  0.24 0 0  0.26 0 0  0.28 0 0  0.3 0 0  0.32 0 0  0.34 0 0  0.36 0 0  0.38 0 0  0.4 0 0  0.42 0 0  0.44 0 0  0.46 0 0  0.48 0 0  0.5 0 0  0.52 0 0  0.54 0 0  0.5600000000000001 0 0  0.58 0 0  0.6 0 0  0.62 0 0  0.64 0 0  0.66 0 0  0.68 0 0  0.7 0 0  0.72 0 0  0.74 0 0  0.76 0 0  0.78 0 0  0.8 0 0  0.82 0 0  0.84 0 0  0.86 0 0  0.88 0 0  0.9 0 0  0.92 0 0  0.9399999999999999 0 0  0.96 0 0  0.98 0 0  1 0 0  1.02 0 0  1.04 0 0  1.06 0 0  1.08 0 0  1.1 0 0  1.12 0 0  1.14 0 0  1.16 0 0  1.18 0 0  1.2 0 0  1.22 0 0  1.24 0 0  1.26 0 0  1.28 0 0  1.3 0 0  1.32 0 0  1.34 0 0  1.36 0 0  1.38 0 0  1.4 0 0  1.42 0 0  1.44 0 0  1.46 0 0  1.48 0 0  1.5 0 0  1.52 0 0  1.54 0 0  1.56 0 0  1.58 0 0  1.6 0 0  1.62 0 0  1.64 0 0  1.66 0 0  1.68 0 0  1.7 0 0  1.72 0 0  1.74 0 0  1.76 0 0  1.78 0 0  1.8 0 0  1.82 0 0  1.84 0 0  1.86 0 0  1.88 0 0  1.9 0 0  1.92 0 0  1.94 0 0  1.96 0 0  1.98 0 0  2 0 0  0 0.02 0  0.02 0.02 0  0.04 0.02 0  0.06 0.02 0  0.08 0.02 0  0.1 0.02 0  0.12 0.02 0  0.14 0.02 0  0.16 0.02 0  0.18 0.02 0  0.2 0.02 0  0.22 0.02 0  0.24 0.02 0  0.26 0.02 0  0.28 0.02 0  0.3 0.02 0  0.32 0.02 0  0.34 0.02 0  0.36 0.02 0  0.38 0.02 0  0.4 0.02 0  0.42 0.02 0  0.44 0.02 0  0.46 0.02 0  0.48 0.02 0  0.5 0.02 0  0.52 0.02 0  0.54 0.02 0  0.5600000000000001 0.02 0  0.58 0.02 0  0.6 0.02 0  0.62 0.02 0  0.64 0.02 0  0.66 0.02 0  0.68 0.02 0  0.7 0.02 0  0.72 0.02 0  0.74 0.02 0  0.76 0.02 0  0.78 0.02 0  0.8 0.02 0  0.82 0.02 0  0.84 0.02 0  0.86 0.02 0  0.88 0.02 0  0.9 0.02 0  0.92 0.02 0  0.9399999999999999 0.02 0  0.96 0.02 0  0.98 0.02 0  1 0.02 0  1.02 0.02 0  1.04 0.02 0  1.06 0.02 0  1.08 0.02 0  1.1 0.02 0  1.12 0.02 0  1.14 0.02 0  1.16 0.02 0  1.18 0.02 0  1.2 0.02 0  1.22 0.02 0  1.24 0.02 0  1.26 0.02 0  1.28 0.02 0  1.3 0.02 0  1.32 0.02 0  1.34 0.02 0  1.36 0.02 0  1.38 0.02 0  1.4 0.02 0  1.42 0.02 0  1.44 0.02 0  1.46 0.02 0  1.48 0.02 0  1.5 0.02 0  1.52 0.02 0  1.54 0.02 0  1.56 0.02 0  1.58 0.02 0  1.6 0.02 0  1.62 0.02 0  1.64 0.02 0  1.66 0.02 0  1.68 0.02 0  1.7 0.02 0  1.72 0.02 0  1.74 0.02 0  1.76 0.02 0  1.78 0.02 0  1.8 0.02 0  1.82 0.02 0  1.84 0.02 0  1.86 0.02 0  1.88 0.02 0  1.9 0.02 0  1.92 0.02 0  1.94 0.02 0  1.96 0.02 0  1.98 0.02 0  2 0.02 0  0 0.04 0  0.02 0.04 0  0.04 0.04 0  0.06 0.04 0  0.08 0.04 0  0.1 0.04 0  0.12 0.04 0  0.14 0.04 0  0.16 0.04 0  0.18 0.04 0  0.2 0.04 0  0.22 0.04 0  0.24 0.04 0  0.26 0.04 0  0.28 0.04 0  0.3 0.04 0  0.32 0.04 0  0.34 0.04 0  0.36 0.04 0  0.38 0.04 0  0.4 0.04 0  0.42 0.04 0  0.44 0.04 0  0.46 0.04 0  0.48 0.04 0  0.5 0.04 0  0.52 0.04 0  0.54 0.04 0  0.5600000000000001 0.04 0  0.58 0.04 0  0.6 0.04 0  0.62 0.04 0  0.64 0.04 0  0.66 0.04 0  0.68 0.04 0  0.7 0.04 0  0.72 0.04 0  0.74 0.04 0  0.76 0.04 0  0.78 0.04 0  0.8 0.04 0  0.82 0.04 0  0.84 0.04 0  0.86 0.04 0  0.88 0.04 0  0.9 0.04 0  0.92 0.04 0  0.9399999999999999 0.04 0  0.96 0.04 0  0.98 0.04 0  1 0.04 0  1.02 0.04 0  1.04 0.04 0  1.06 0.04 0  1.08 0.04 0  1.1 0.04 0  1.12 0.04 0  1.14 0.04 0  1.16 0.04 0  1.18 0.04 0  1.2 0.04 0  1.22 0.04 0  1.24 0.04 0  1.26 0.04 0  1.28 0.04 0  1.3 0.04 0  1.32 0.04 0  1.34 0.04 0  1.36 0.04 0  1.38 0.04 0  1.4 0.04 0  1.42 0.04 0  1.44 0.04 0  1.46 0.04 0  1.48 0.04 0  1.5 0.04 0  1.52 0.04 0  1.54 0.04 0  1.56 0.04 0  1.58 0.04 0  1.6 0.04 0  1.62 0.04 0  1.64 0.04 0  1.66 0.04 0  1.68 0.04 0  1.7 0.04 0  1.72 0.04 0  1.74 0.04 0  1.76 0.04 0  1.78 0.04 0  1.8 0.04 0  1.82 0.04 0  1.84 0.04 0  1.86 0.04 0  1.88 0.04 0  1.9 0.04 0  1.92 0.04 0  1.94 0.04 0  1.96 0.04 0  1.98 0.04 0  2 0.04 0  0 0.06 0  0.02 0.06 0  0.04 0.06 0  0.06 0.06 0  0.08 0.06 0  0.1 0.06 0  0.12 0.06 0  0.14 0.06 0  0.16 0.06 0  0.18 0.06 0  0.2 0.06 0  0.22 0.06 0  0.24 0.06 0  0.26 0.06 0  0.28 0.06 0  0.3 0.06 0  0.32 0.06 0  0.34 0.06 0  0.36 0.06 0  0.38 0.06 0  0.4 0.06 0  0.42 0.06 0  0.44 0.06 0  0.46 0.06 0  0.48 0.06 0  0.5 0.06 0  0.52 0.06 0  0.54 0.06 0  0.5600000000000001 0.06 0  0.58 0.06 0  0.6 0.06 0  0.62 0.06 0  0.64 0.06 0  0.66 0.06 0  0.68 0.06 0  0.7 0.06 0  0.72 0.06 0  0.74 0.06 0  0.76 0.06 0  0.78 0.06 0  0.8 0.06 0  0.82 0.06 0  0.84 0.06 0  0.86 0.06 0  0.88 0.06 0  0.9 0.06 0  0.92 0.06 0  0.9399999999999999 0.06 0  0.96 0.06 0  0.98 0.06 0  1 0.06 0  1.02 0.06 0  1.04 0.06 0  1.06 0.06 0  1.08 0.06 0  1.1 0.06 0  1.12 0.06 0  1.14 0.06 0  1.16 0.06 0  1.18 0.06 0  1.2 0.06 0  1.22 0.06 0  1.24 0.06 0  1.26 0.06 0  1.28 0.06 0  1.3 0.06 0  1.32 0.06 0  1.34 0.06 0  1.36 0.06 0  1.38 0.06 0  1.4 0.06 0  1.42 0.06 0  1.44 0.06 0  1.46 0.06 0  1.48 0.06 0  1.5 0.06 0  1.52 0.06 0  1.54 0.06 0  1.56 0.06 0  1.58 0.06 0  1.6 0.06 0  1.62 0.06 0  1.64 0.06 0  1.66 0.06 0  1.68 0.06 0  1.7 0.06 0  1.72 0.06 0  1.74 0.06 0  1.76 0.06 0  1.78 0.06 0  1.8 0.06 0  1.82 0.06 0  1.84 0.06 0  1.86 0.06 0  1.88 0.06 0  1.9 0.06 0  1.92 0.06 0  1.94 0.06 0  1.96 0.06 0  1.98 0.06 0  2 0.06 0  0 0.08 0  0.02 0.08 0  0.04 0.08 0  0.06 0.08 0  0.08 0.08 0  0.1 0.08 0  0.12 0.08 0  0.14 0.08 0  0.16 0.08 0  0.18 0.08 0  0.2 0.08 0  0.22 0.08 0  0.24 0.08 0  0.26 0.08 0  0.28 0.08 0  0.3 0.08 0  0.32 0.08 0  0.34 0.08 0  0.36 0.08 0  0.38 0.08 0  0.4 0.08 0  0.42 0.08 0  0.44 0.08 0  0.46 0.08 0  0.48 0.08 0  0.5 0.08 0  0.52 0.08 0  0.54 0.08 0  0.5600000000000001 0.08 0  0.58 0.08 0  0.6 0.08 0  0.62 0.08 0  0.64 0.08 0  0.66 0.08 0  0.68 0.08 0  0.7 0.08 0  0.72 0.08 0  0.74 0.08 0  0.76 0.08 0  0.78 0.08 0  0.8 0.08 0  0.82 0.08 0  0.84 0.08 0  0.86 0.08 0  0.88 0.08 0  0.9 0.08 0  0.92 0.08 0  0.9399999999999999 0.08 0  0.96 0.08 0  0.98 0.08 0  1 0.08 0  1.02 0.08 0  1.04 0.08 0  1.06 0.08 0  1.08 0.08 0  1.1 0.08 0  1.12 0.08 0  1.14 0.08 0  1.16 0.08 0  1.18 0.08 0  1.2 0.08 0  1.22 0.08 0  1.24 0.08 0  1.26 0.08 0  1.28 0.08 0  1.3 0.08 0  1.32 0.08 0  1.34 0.08 0  1.36 0.08 0  1.38 0.08 0  1.4 0.08 0  1.42 0.08 0  1.44 0.08 0  1.46 0.08 0  1.48 0.08 0  1.5 0.08 0  1.52 0.08 0  1.54 0.08 0  1.56 0.08 0  1.58 0.08 0  1.6 0.08 0  1.62 0.08 0  1.64 0.08 0  1.66 0.08 0  1.68 0.08 0  1.7 0.08 0  1.72 0.08 0  1.74 0.08 0  1.76 0.08 0  1.78 0.08 0  1.8 0.08 0  1.82 0.08 0  1.84 0.08 0  1.86 0.08 0  1.88 0.08 0  1.9 0.08 0  1.92 0.08 0  1.94 0.08 0  1.96 0.08 0  1.98 0.08 0  2 0.08 0  0 0.1 0  0.02 0.1 0  0.04 0.1 0  0.06 0.1 0  0.08 0.1 0  0.1 0.1 0  0.12 0.1 0  0.14 0.1 0  0.16 0.1 0  0.18 0.1 0  0.2 0.1 0  0.22 0.1 0  0.24 0.1 0  0.26 0.1 0  0.28 0.1 0  0.3 0.1 0  0.32 0.1 0  0.34 0.1 0  0.36 0.1 0  0.38 0.1 0  0.4 0.1 0  0.42 0.1 0  0.44 0.1 0  0.46 0.1 0  0.48 0.1 0  0.5 0.1 0  0.52 0.1 0  0.54 0.1 0  0.5600000000000001 0.1 0  0.58 0.1 0  0.6 0.1 0  0.62 0.1 0  0.64 0.1 0  0.66 0.1 0  0.68 0.1 0  0.7 0.1 0  0.72 0.1 0  0.74 0.1 0  0.76 0.1 0  0.78 0.1 0  0.8 0.1 0  0.82 0.1 0  0.84 0.1 0  0.86 0.1 0  0.88 0.1 0  0.9 0.1 0  0.92 0.1 0  0.9399999999999999 0.1 0  0.96 0.1 0  0.98 0.1 0  1 0.1 0  1.02 0.1 0  1.04 0.1 0  1.06 0.1 0  1.08 0.1 0  1.1 0.1 0  1.12 0.1 0  1.14 0.1 0  1.16 0.1 0  1.18 0.1 0  1.2 0.1 0  1.22 0.1 0  1.24 0.1 0  1.26 0.1 0  1.28 0.1 0  1.3 0.1 0  1.32 0.1 0  1.34 0.1 0  1.36 0.1 0  1.38 0.1 0  1.4 0.1 0  1.42 0.1 0  1.44 0.1 0  1.46 0.1 0  1.48 0.1 0  1.5 0.1 0  1.52 0.1 0  1.54 0.1 0  1.56 0.1 0  1.58 0.1 0  1.6 0.1 0  1.62 0.1 0  1.64 0.1 0  1.66 0.1 0  1.68 0.1 0  1.7 0.1 0  1.72 0.1 0  1.74 0.1 0  1.76 0.1 0  1.78 0.1 0  1.8 0.1 0  1.82 0.1 0  1.84 0.1 0  1.86 0.1 0  1.88 0.1 0  1.9 0.1 0  1.92 0.1 0  1.94 0.1 0  1.96 0.1 0  1.98 0.1 0  2 0.1 0  0 0.12 0  0.02 0.12 0  0.04 0.12 0  0.06 0.12 0  0.08 0.12 0  0.1 0.12 0  0.12 0.12 0  0.14 0.12 0  0.16 0.12 0  0.18 0.12 0  0.2 0.12 0  0.22 0.12 0  0.24 0.12 0  0.26 0.12 0  0.28 0.12 0  0.3 0.12 0  0.32 0.12 0  0.34 0.12 0  0.36 0.12 0  0.38 0.12 0  0.4 0.12 0  0.42 0.12 0  0.44 0.12 0  0.46 0.12 0  0.48 0.12 0  0.5 0.12 0  0.52 0.12 0  0.54 0.12 0  0.5600000000000001 0.12 0  0.58 0.12 0  0.6 0.12 0  0.62 0.12 0  0.64 0.12 0  0.66 0.12 0  0.68 0.12 0  0.7 0.12 0  0.72 0.12 0  0.74 0.12 0  0.76 0.12 0  0.78 0.12 0  0.8 0.12 0  0.82 0.12 0  0.84 0.12 0  0.86 0.12 0  0.88 0.12 0  0.9 0.12 0  0.92 0.12 0  0.9399999999999999 0.12 0  0.96 0.12 0  0.98 0.12 0  1 0.12 0  1.02 0.12 0  1.04 0.12 0  1.06 0.12 0  1.08 0.12 0  1.1 0.12 0  1.12 0.12 0  1.14 0.12 0  1.16 0.12 0  1.18 0.12 0  1.2 0.12 0  1.22 0.12 0  1.24 0.12 0  1.26 0.12 0  1.28 0.12 0  1.3 0.12 0  1.32 0.12 0  1.34 0.12 0  1.36 0.12 0  1.38 0.12 0  1.4 0.12 0  1.42 0.12 0  1.44 0.12 0  1.46 0.12 0  1.48 0.12 0  1.5 0.12 0  1.52 0.12 0  1.54 0.12 0  1.56 0.12 0  1.58 0.12 0  1.6 0.12 0  1.62 0.12 0  1.64 0.12 0  1.66 0.12 0  1.68 0.12 0  1.7 0.12 0  1.72 0.12 0  1.74 0.12 0  1.76 0.12 0  1.78 0.12 0  1.8 0.12 0  1.82 0.12 0  1.84 0.12 0  1.86 0.12 0  1.88 0.12 0  1.9 0.12 0  1.92 0.12 0  1.94 0.12 0  1.96 0.12 0  1.98 0.12 0  2 0.12 0  0 0.14 0  0.02 0.14 0  0.04 0.14 0  0.06 0.14 0  0.08 0.14 0  0.1 0.14 0  0.12 0.14 0  0.14 0.14 0  0.16 0.14 0  0.18 0.14 0  0.2 0.14 0  0.22 0.14 0  0.24 0.14 0  0.26 0.14 0  0.28 0.14 0  0.3 0.14 0  0.32 0.14 0  0.34 0.14 0  0.36 0.14 0  0.38 0.14 0  0.4 0.14 0  0.42 0.14 0  0.44 0.14 0  0.46 0.14 0  0.48 0.14 0  0.5 0.14 0  0.52 0.14 0  0.54 0.14 0  0.5600000000000001 0.14 0  0.58 0.14 0  0.6 0.14 0  0.62 0.14 0  0.64 0.14 0  0.66 0.14 0  0.68 0.14 0  0.7 0.14 0  0.72 0.14 0  0.74 0.14 0  0.76 0.14 0  0.78 0.14 0  0.8 0.14 0  0.82 0.14 0  0.84 0.14 0  0.86 0.14 0  0.88 0.14 0  0.9 0.14 0  0.92 0.14 0  0.9399999999999999 0.14 0  0.96 0.14 0  0.98 0.14 0  1 0.14 0  1.02 0.14 0  1.04 0.14 0  1.06 0.14 0  1.08 0.14 0  1.1 0.14 0  1.12 0.14 0  1.14 0.14 0  1.16 0.14 0  1.18 0.14 0  1.2 0.14 0  1.22 0.14 0  1.24 0.14 0  1.26 0.14 0  1.28 0.14 0  1.3 0.14 0  1.32 0.14 0  1.34 0.14 0  1.36 0.14 0  1.38 0.14 0  1.4 0.14 0  1.42 0.14 0  1.44 0.14 0  1.46 0.14 0  1.48 0.14 0  1
[...]
<PointData  Scalars="sols[i]"> 
<DataArray  type="Float64"  Name="sols[i]"  format="ascii">8.4965760834763326e-05  5.6641764384563270e-05  5.6641764384568163e-05  5.6641764384578015e-05  5.6641764384596555e-05  5.6641764384630423e-05  5.6641764384690935e-05  5.6641764384797498e-05  5.6641764384981691e-05  5.6641764385294239e-05  5.6641764385814385e-05  5.6641764386661438e-05  5.6641764388009474e-05  5.6641764390102757e-05  5.6641764393269563e-05  5.6641764397930887e-05  5.6641764404602545e-05  5.6641764413888770e-05  5.6641764426476392e-05  5.6641764443149910e-05  5.6641764464855888e-05  5.6641764492854650e-05  5.6641764528988757e-05  5.6641764576067282e-05  5.6641764638331698e-05  5.6641764721936330e-05  5.6641764835364098e-05  5.6641764989730852e-05  5.6641765198991629e-05  5.6641765480141109e-05  5.6641765853577376e-05  5.6641766343826161e-05  5.6641766980828500e-05  5.6641767801961335e-05  5.6641768854938878e-05  5.6641770201754088e-05  5.6641771923890641e-05  5.6641774129151788e-05  5.6641776960643936e-05  5.6641780608683733e-05  5.6641785326681495e-05  5.6641791452381539e-05  5.6641799436207888e-05  5.6641809878820164e-05  5.6641823580252148e-05  5.6641841602867205e-05  5.6641865349241511e-05  5.6641896652898708e-05  5.6641937873010159e-05  5.6641991972018133e-05  5.6642062536853535e-05  5.6642153682102408e-05  5.6642269755104367e-05  5.6642414764380831e-05  5.6642591495132649e-05  5.6642800375035065e-05  5.6643038305111802e-05  5.6643297832175039e-05  5.6643567127066696e-05  5.6643831134244035e-05  5.6644073892182109e-05  5.6644281465334982e-05  5.6644444490483403e-05  5.6644559391339268e-05  5.6644627896737786e-05  5.6644655234907776e-05  5.6644647819852783e-05  5.6644611230696199e-05  5.6644548961644285e-05  5.6644462069037216e-05  5.6644349632846663e-05  5.6644209850995442e-05  5.6644041513155958e-05  5.6643845539711015e-05  5.6643626234491739e-05  5.6643391899742136e-05  5.6643154494618263e-05  5.6642928112575669e-05  5.6642726307303387e-05  5.6642558783570268e-05  5.6642428544151091e-05  5.6642330865753744e-05  5.6642255155546943e-05  5.6642189516386617e-05  5.6642125709219656e-05  5.6642061372233702e-05  5.6641998702786494e-05  5.6641941521154750e-05  5.6641892893021241e-05  5.6641854141918559e-05  5.6641824966513717e-05  5.6641804043301444e-05  5.6641789648187809e-05  5.6641780091002295e-05  5.6641773939549508e-05  5.6641770088682102e-05  5.6641767741709300e-05  5.6641766355569690e-05  5.6641765580972751e-05  5.6641765213722020e-05  1.6993041909306504e-04  5.6641764384562904e-05  2.8316516563683238e-05  2.8316516563685904e-05  2.8316516563691413e-05  2.8316516563701900e-05  2.8316516563721246e-05  2.8316516563756198e-05  2.8316516563818343e-05  2.8316516563926973e-05  2.8316516564113334e-05  2.8316516564426963e-05  2.8316516564943636e-05  2.8316516565775382e-05  2.8316516567081683e-05  2.8316516569079742e-05  2.8316516572051334e-05  2.8316516576344049e-05  2.8316516582365444e-05  2.8316516590574074e-05  2.8316516601480813e-05  2.8316516615681791e-05  2.8316516633951031e-05  2.8316516657417686e-05  2.8316516687831695e-05  2.8316516727893721e-05  2.8316516781599157e-05  2.8316516854534735e-05  2.8316516954085155e-05  2.8316517089552866e-05  2.8316517272252976e-05  2.8316517515702324e-05  2.8316517836047268e-05  2.8316518252871307e-05  2.8316518790498856e-05  2.8316519479886544e-05  2.8316520361197150e-05  2.8316521487193497e-05  2.8316522927670347e-05  2.8316524775266242e-05  2.8316527153156696e-05  2.8316530225320384e-05  2.8316534210294125e-05  2.8316539399588903e-05  2.8316546182215359e-05  2.8316555077024300e-05  2.8316566774652962e-05  2.8316582190418424e-05  2.8316602527815142e-05  2.8316629348209951e-05  2.8316664634452581e-05  2.8316710823332894e-05  2.8316770764730487e-05  2.8316847548641273e-05  2.8316944136217880e-05  2.8317062754285397e-05  2.8317204079768621e-05  2.8317366352247827e-05  2.8317544683555136e-05  2.8317730923380506e-05  2.8317914398410817e-05  2.8318083583352224e-05  2.8318228312838804e-05  2.8318341754095823e-05  2.8318421369228926e-05  2.8318468561938228e-05  2.8318487305115573e-05  2.8318482396402455e-05  2.8318457959090621e-05  2.8318416531503678e-05  2.8318358810995485e-05  2.8318283978974066e-05  2.8318190481209482e-05  2.8318077091514422e-05  2.8317944041806784e-05  2.8317793972267435e-05  2.8317632453984878e-05  2.8317467849463496e-05  2.8317310313808487e-05  2.8317169890706070e-05  2.8317054016996009e-05  2.8316965229810560e-05  2.8316900151593385e-05  2.8316850701515672e-05  2.8316807661685210e-05  2.8316764776117480e-05  2.8316720537668496e-05  2.8316676965681396e-05  2.8316637157983815e-05  2.8316603459985038e-05  2.8316576809536872e-05  2.8316556921293165e-05  2.8316542787903658e-05  2.8316533150225843e-05  2.8316526805223316e-05  2.8316522753173761e-05  2.8316520234655767e-05  2.8316518709131533e-05  2.8316517811668650e-05  2.8316517308480860e-05  2.8316517060768206e-05  5.6641765203166302e-05  5.6641764384566550e-05  2.8316516563685338e-05  2.8316516563689523e-05  2.8316516563698241e-05  2.8316516563715069e-05  2.8316516563746565e-05  2.8316516563804367e-05  2.8316516563908796e-05  2.8316516564094337e-05  2.8316516564418029e-05  2.8316516564971951e-05  2.8316516565899791e-05  2.8316516567418114e-05  2.8316516569840656e-05  2.8316516573601492e-05  2.8316516579270806e-05  2.8316516587556143e-05  2.8316516599283612e-05  2.8316516615364526e-05  2.8316516636773982e-05  2.8316516664591201e-05  2.8316516700170881e-05  2.8316516745508428e-05  2.8316516803813914e-05  2.8316516880236550e-05  2.8316516982613618e-05  2.8316517122090440e-05  2.8316517313501340e-05  2.8316517575511300e-05  2.8316517930663047e-05  2.8316518405604520e-05  2.8316519031825309e-05  2.8316519847200840e-05  2.8316520898562644e-05  2.8316522245441711e-05  2.8316523965129698e-05  2.8316526159289845e-05  2.8316528962521877e-05  2.8316532553540869e-05  2.8316537169955626e-05  2.8316543128018764e-05  2.8316550849173409e-05  2.8316560895751423e-05  2.8316574018802940e-05  2.8316591221744753e-05  2.8316613844107399e-05  2.8316643669525233e-05  2.8316683059843731e-05  2.8316735110229685e-05  2.8316803804771175e-05  2.8316894124445352e-05  2.8317012018459663e-05  2.8317164103860255e-05  2.8317356932165587e-05  2.8317595698513493e-05  2.8317882412501040e-05  2.8318213813633549e-05  2.8318579647141086e-05  2.8318962185655650e-05  2.8319337854771813e-05  2.8319681207808065e-05  2.8319970281924557e-05  2.8320191266378092e-05  2.8320340485146703e-05  2.8320423070806974e-05  2.8320449326736259e-05  2.8320430536576862e-05  2.8320375685866317e-05  2.8320289712363508e-05  2.8320173215527821e-05  2.8320023362330130e-05  2.8319835722612517e-05  2.8319606681004449e-05  2.8319335967501894e-05  2.8319028782430708e-05  2.8318697005502406e-05  2.8318358987320971e-05  2.8318037403597640e-05  2.8317754893003681e-05  2.8317528076357138e-05  2.8317361877055360e-05  2.8317246818688812e-05  2.8317161945705859e-05  2.8317084469982590e-05  2.8317000907916131e-05  2.8316910685314185e-05  2.8316821152577065e-05  2.8316740581405464e-05  2.8316674121660950e-05  2.8316623121479380e-05  2.8316586220399349e-05  2.8316560771648733e-05  2.8316543902382007e-05  2.8316533086069690e-05  2.8316526346380792e-05  2.8316522252342651e-05  2.8316519824945578e-05  2.8316518424834005e-05  2.8316517653598864e-05  2.8316517279936172e-05  5.6641765522247333e-05  5.6641764384573373e-05  2.8316516563689381e-05  2.8316516563696540e-05  2.8316516563711671e-05  2.8316516563741249e-05  2.8316516563797459e-05  2.8316516563902328e-05  2.8316516564094991e-05  2.8316516564443182e-05  2.8316516565061340e-05  2.8316516566137790e-05  2.8316516567972684e-05  2.8316516571027664e-05  2.8316516575984653e-05  2.8316516583804350e-05  2.8316516595768429e-05  2.8316516613483442e-05  2.8316516638826915e-05  2.8316516673839303e-05  2.8316516720617152e-05  2.8316516781333277e-05  2.8316516858570122e-05  2.8316516956145207e-05  2.8316517080484832e-05  2.8316517242396563e-05  2.8316517458898353e-05  2.8316517754685569e-05  2.8316518162923950e-05  2.8316518725345743e-05  2.8316519492016805e-05  2.8316520521482648e-05  2.8316521882124773e-05  2.8316523655436672e-05  2.8316525941671106e-05  2.8316528868097561e-05  2.8316532600085357e-05  2.8316537355432033e-05  2.8316543422763715e-05  2.8316551185420200e-05  2.8316561152974759e-05  2.8316574003406226e-05  2.8316590639940498e-05  2.8316612267753341e-05  2.8316640497194668e-05  2.8316677482079949e-05  2.8316726103732311e-05  2.8316790212852128e-05  2.8316874939037160e-05  2.8316987065741938e-05  2.8317135436890859e-05  2.8317331298126045e-05  2.8317588371718439e-05  2.8317922330620902e-05  2.8318349233834406e-05  2.8318882530031634e-05  2.8319528563563643e-05  2.8320281187062332e-05  2.8321116994086621e-05  2.8321993538880083e-05  2.8322853091050415e-05  2.8323632973197754e-05  2.8324279943679906e-05  2.8324762578520941e-05  2.8325075873248742e-05  2.8325236671836833e-05  2.8325273313672795e-05  2.8325214648826698e-05  2.8325082212563780e-05  2.8324886626700174e-05  2.8324627463783448e-05  2.8324295758410515e-05  2.8323878641221873e-05  2.8323365313114977e-05  2.8322753283369273e-05  2.8322053616961495e-05  2.8321294058474624e-05  2.8320518911058365e-05  2.8319784193380403e-05  2.8319146818909516e-05  2.8318648856916814e-05  2.8318301983904672e-05  2.8318079177164481e-05  2.8317921430943580e-05  2.8317766144127334e-05  2.8317581225887467e-05  2.8317372754874297e-05  2.8317165764722614e-05  2.8316983182169309e-05  2.8316836788878760e-05  2.8316727860701789e-05  2.8316651417174872e-05  2.8316600206591691e-05  2.8316567168382956e-05  2.8316546512128295e-05  2.8316533940458214e-05  2.8316526470748559e-05  2.8316522133145508e-05  2.8316519679190236e-05  2.8316518350367293e-05  2.8316517715195500e-05  5.6641766182054733e-05  5.6641764384585184e-05  2.8316516563696458e-05  2.8316516563708994e-05  2.8316516563735774e-05  2.8316516563788873e-05  2.8316516563891289e-05  2.8316516564085416e-05  2.8316516564447902e-05  2.8316516565114087e-05  2.8316516566317246e-05  2.8316516568449140e-05  2.8316516572147313e-05  2.8316516578413229e-05  2.8316516588756948e-05  2.8316516605348436e-05  2.8316516631134640e-05  2.8316516669860261e-05  2.8316516725926436e-05  2.8316516804069765e-05  2.8316516908973583e-05  2.8316517045126025e-05  2.8316517217434610e-05  2.8316517433119180e-05  2.8316517705079962e-05  2.8316518056351521e-05  2.8316518524703505e-05  2.8316519166230505e-05  2.8316520057044302e-05  2.8316521292953809e-05  2.8316522988091891e-05  2.8316525274369890e-05  2.8316528303925405e-05  2.8316532256288551e-05  2.8316537351191637e-05  2.8316543867327077e-05  2.8316552167283974e-05  2.8316562729405680e-05  2.8316576188296678e-05  2.8316593387082510e-05  2.8316615446235321e-05  2.8316643855763855e-05  2.8316680599797767e-05  2.8316728325167200e-05  2.8316790568896823e-05  2.8316872064212819e-05  2.8316979150965174e-05  2.8317120323118548e-05  2.8317306947593973e-05  2.8317554171055514e-05  2.8317881969524005e-05  2.8318316154819757e-05  2.8318888892243715e-05  2.8319637905195393e-05  2.8320603182076843e-05  2.8321819983667228e-05  2.8323307680653253e-05  2.8325055654214680e-05  2.8327009948757958e-05  2.8329066998653105e-05  2.8331082078375042e-05  2.8332896693335790e-05  2.8334378291725165e-05  2.8335454057349715e-05  2.8336121545882233e-05  2.8336433340041254e-05  2.8336467267988301e-05  2.8336297371767796e-05  2.8335975417878798e-05  2.8335524052601731e-05  2.8334937840069303e-05  2.8334189969077493e-05  2.8333243983550046e-05  2.8332068754660923e-05  2.8330654076457358e-05  2.8329023724882321e-05  2.8327243538569158e-05  2.8325422253055818e-05  2.8323700940037518e-05  2.8322226063643673e-05  2.8321107337194839e-05  2.8320374706061745e-05  2.8319952365872838e-05  2.8319671076824513e-05  2.8319353591428507e-05  2.8318924390845766e-05  2.8318422674278626e-05  2.8317929755601088e-05  2.8317506979439902e-05  2.8317179054367470e-05  2.8316943015517282e-05  2.8316782449120745e-05  2.8316677903575198e-05  2.8316612178665024e-05  2.8316572045701116e-05  2.8316548148973861e-05  2.8316534239152677e-05  2.8316526317502782e-05  2.8316521916848550e-05  2.8316519571998335e-05  2.8316518464257039e-05  5.6641767322035530e-05  5.6641764384604829e-05  2.8316516563708364e-05  2.8316516563730197e-05  2.8316516563777408e-05  2.8316516563872282e-05  2.8316516564057958e-05  2.8316516564415498e-05  2.8316516565094069e-05  2.8316516566362359e-05  2.8316516568693146e-05  2.8316516572897201e-05  2.8316516580323126e-05  2.8316516593137081e-05  2.8316516614678945e-05  2.8316516649854773e-05  2.8316516705466199e-05  2.8316516790307804e-05  2.8316516914825849e-05  2.8316517090218830e-05  2.8316517327178462e-05  2.8316517635044184e-05  2.8316518022769230e-05  2.8316518503237414e-05  2.8316519101597066e-05  2.8316519866583685e-05  2.8316520882243721e-05  2.8316522276863797e-05  2.8316524226593522e-05  2.8316526953311452e-05  2.8316530719267291e-05  2.8316535823588696e-05  2.8316542606378690e-05  2.8316551464624540e-05  2.8316562881693571e-05  2.8316577470435421e-05  2.8316596029761616e-05  2.8316619615925155e-05  2.8316649632129003e-05  2.8316687943332527e-05  2.8316737027112218e-05  2.8316800176020134e-05  2.8316881771862986e-05  2.8316987657790003e-05  2.8317125641194578e-05  2.8317306171304367e-05  2.8317543251939019e-05  2.8317855672680027e-05  2.8318268661629475e-05  2.8318816048191290e-05  2.8319542915716406e-05  2.8320508428833390e-05  2.8321787896874895e-05  2.8323472087794705e-05  2.8325660629593382e-05  2.8328445920812737e-05  2.8331885534427247e-05  2.8335965388424094e-05  2.8340562397139668e-05  2.8345423125941989e-05  2.8350181380170531e-05  2.8354431197228930e-05  2.8357838538575107e-05  2.8360235170741035e-05  2.8361642169468014e-05  2.8362219028394272e-05  2.8362177779598921e-05  2.8361706653906809e-05  2.8360928106979124e-05  2.8359888490805340e-05  2.8358563832336223e-05  2.8356876852442270e-05  2.8354726499990033e-05  2.8352025506597271e-05  2.8348739490729827e-05  2.8344919145187673e-05  2.8340720655134041e-05  2.8336411012552400e-05  2.8332346934491456e-05  2.8328908660665815e-05  2.8326386075641732e-05  2.8324860761775748e-05  2.8324125901830874e-05  2.8323690553671838e-05  2.8323040296944133e-05  2.8322007209506894e-05  2.8320770896746903e-05  2.8319585965454887e-05  2.8318607215765983e-05  2.8317877091643929e-05  2.8317370304270649e-05  2.8317036562864793e-05  2.8316825380294877e-05  2.8316695929870434e-05  2.8316618666095985e-05  2.8316573618611389e-05  2.8316547913347629e-05  2.8316533549540213e-05  2.8316525712231913e-05  2.8316521602617741e-05  2.8316519683189607e-05  5.6641769169602497e-05  5.6641764384636454e-05  2.8316516563727758e-05  2.8316516563765288e-05  2.8316516563847359e-05  2.8316516564014526e-05  2.8316516564346593e-05  2.8316516564996207e-05  2.8316516566249734e-05  2.8316516568633475e-05  2.8316516573093550e-05  2.8316516581288614e-05  2.8316516596042126e-05  2.8316516621998624e-05  2.8316516666495596e-05  2.8316516740577964e-05  2.8316516859926221e-05  2.8316517045255356e-05  2.8316517321566401e-05  2.8316517715741274e-05  2.8316518252720257e-05  2.8316518952105306e-05  2.8316519829023025e-05  2.8316520903834178e-05  2.8316522222900263e-05  2.8316523887631841e-05  2.8316526084653825e-05  2.8316529108313184e-05  2.8316533368441405e-05  2.8316539381737508e-05  2.8316547753520355e-05  2.8316559163843515e-05  2.8316574373320232e-05  2.8316594258978795e-05  2.8316619883072184e-05  2.8316652592925694e-05  2.8316694149879380e-05  2.8316746889104246e-05  2.8316813917938931e-05  2.8316899367990371e-05  2.8317008725581943e-05  2.8317149275852059e-05  2.8317330706994524e-05  2.8317565932353521e-05  2.8317872202422923e-05  2.8318272602488409e-05  2.8318798071547323e-05  2.8319490143994210e-05  2.8320404699302278e-05  2.8321617035894481e-05  2.8323228430024838e-05  2.8325373785686895e-05  2.8328228573109337e-05  2.8332010432376336e-05  2.8336967122115821e-05  2.8343340364755921e-05  2.8351298234464963e-05  2.8360839502375893e-05  2.8371689503228862e-05  2.8383228981879182e-05  2.8394524143317453e-05  2.8404521528551154e-05  2.8412368751747397e-05  2.8417680571880823e-05  2.8420586063364778e-05  2.8421560512880031e-05  2.8421177406298651e-05  2.8419909251340107e-05  2.8418038824217924e-05  2.8415655139217807e-05  2.8412674066181681e-05  2.8408878435486362e-05  2.8403992547870112e-05  2.8397776554773704e-05  2.8390125134512640e-05  2.8381145547736371e-05  2.8371207003454705e-05  2.8360962799876940e-05  2.8351316050155902e-05  2.8343260734356275e-05  2.8337568907945259e-05  2.8334474399431553e-05  2.8333437963033760e-05  2.8333017881591252e-05  2.8331674126745173e-05  2.8329081710282413e-05  2.8325973702636685e-05  2.8323118792557733e-05  2.8320871718172567e-05  2.8319269044817713e-05  2.8318199326594722e-05  2.8317517923232852e-05  2.8317098769677509e-05  2.8316848068261620e-05  2.8316701700711684e-05  2.8316618100988288e-05  2.8316571328172832e-05  2.8316545687313483e-05  2.8316531951349477e-05  2.8316524867061819e-05  2.8316521597280048e-05  5.6641772051462070e-05  5.6641764384686422e-05  2.8316516563758688e-05  2.8316516563822029e-05  2.8316516563962183e-05  2.8316516564251573e-05  2.8316516564835111e-05  2.8316516565995204e-05  2.8316516568272063e-05  2.8316516572679575e-05  2.8316516581081264e-05  2.8316516596820888e-05  2.8316516625731410e-05  2.8316516677656258e-05  2.8316516768563120e-05  2.8316516923147419e-05  2.8316517177431487e-05  2.8316517580246055e-05  2.8316518191821224e-05  2.8316519077637859e-05  2.8316520297323012e-05  2.8316521892760356e-05  2.8316523885906493e-05  2.8316526300143675e-05  2.8316529212433009e-05  2.8316532828497725e-05  2.8316537561072866e-05  2.8316544087363513e-05  2.8316553365781099e-05  2.8316566606164946e-05  2.8316585211579924e-05  2.8316610730848399e-05  2.8316644863518234e-05  2.8316689542353241e-05  2.8316747096173908e-05  2.8316820482932563e-05  2.8316913584546065e-05  2.8317031565587716e-05  2.8317181312072615e-05  2.8317371984166065e-05  2.8317615738592759e-05  2.8317928702031812e-05  2.8318332302462594e-05  2.8318855087501927e-05  2.8319535185364061e-05  2.8320423612611426e-05  2.8321588719524304e-05  2.8323122235640927e-05  2.8325147658936938e-05  2.8327831957074208e-05  2.8331401429993627e-05  2.8336161751936072e-05  2.8342519361632515e-05  2.8350993983486232e-05  2.8362200758698742e-05  2.8376771902898798e-05  2.8395193031194539e-05  2.8417556796347827e-05  2.8443274245999992e-05  2.8470840083357395e-05  2.8497851455710281e-05  2.8521526779237063e-05  2.8539651849005646e-05  2.8551354476373410e-05  2.8557178713130321e-05  2.8558527647632143e-05  2.8556945516827670e-05  2.8553601691595100e-05  2.8549127718925104e-05  2.8543678679799786e-05  2.8536990200201300e-05  2.8528461505490313e-05  2.8517347826151695e-05  2.8502998588094185e-05  2.8485110677011182e-05  2.8463913282945805e-05  2.8440277471445009e-05  2.8415794061217565e-05  2.8392751154843704e-05  2.8373767058146256e-05  2.8360900476729016e-05  2.8354834903664623e-05  2.8354282706040767e-05  2.8354968851272098e-05  2.8352103492083165e-05  2.8345289663805597e-05  2.8337352069968007e-05  2.8330507837374422e-05  2.8325427635736135e-05  2.8321980519678921e-05  2.8319771631074921e-05  2.8318410114904319e-05  2.8317594952722356e-05  2.8317118623938455e-05  2.8316846374536538e-05  2.8316694002312010e-05  2.8316610437135611e-05  2.8316565522615869e-05  2.8316541919472409e-05  2.8316529957877486e-05  2.8316524506782921e-05  5.6641776397352132e-05  5.6641764384763278e-05  2.8316516563806803e-05  2.8316516563911571e-05  2.8316516564146152e-05  2.8316516564637143e-05  2.8316516565642323e-05  2.8316516567673502e-05  2.8316516571729665e-05  2.8316516579726672e-05  2.8316516595267728e-05  2.8316516624977788e-05  2.8316516680716520e-05  2.8316516783051503e-05  2.8316516966316792e-05  2.8316517285220488e-05  2.8316517822038976e-05  2.8316518691736671e-05  2.8316520040132496e-05  2.8316522028965246e-05  2.8316524804757443e-05  2.8316528460018189e-05  2.83165330153