<?xml version="1.0"?>
<VTKFile type="UnstructuredGrid"  version="0.1"  >
<UnstructuredGrid>
<Piece  NumberOfPoints="5151" NumberOfCells="10000">
<Points>
<DataArray  type="Float64"  NumberOfComponents="3"  format="ascii">0 0 0  0.02 0 0  0.04 0 0  0.06 0 0  0.08 0 0  0.1 0 0  0.12 0 0  0.14 0 0  0.16 0 0  0.18 0 0  0.2 0 0  0.22 0 0  0.24 0 0  0.26 0 0  0.28 0 0  0.3 0 0  0.32 0 0  0.34 0 0  0.36 0 0  0.38 0 0  0.4 0 0  0.42 0 0  0.44 0 0  0.46 0 0  0.48 0 0  0.5 0 0  0.52 0 0  0.54 0 0  0.5600000000000001 0 0  0.58 0 0  0.6 0 0  0.62 0 0  0.64 0 0  0.66 0 0  0.68 0 0  0.7 0 0  0.72 0 0  0.74 0 0  0.76 0 0  0.78 0 0  0.8 0 0  0.82 0 0  0.84 0 0  0.86 0 0  0.88 0 0  0.9 0 0  0.92 0 0  0.9399999999999999 0 0  0.96 0 0  0.98 0 0  1 0 0  1.02 0 0  1.04 0 0  1.06 0 0  1.08 0 0  1.1 0 0  1.12 0 0  1.14 0 0  1.16 0 0  1.18 0 0  1.2 0 0  1.22 0 0  1.24 0 0  1.26 0 0  1.28 0 0  1.3 0 0  1.32 0 0  1.34 0 0  1.36 0 0  1.38 0 0  1.4 0 0  1.42 0 0  1.44 0 0  1.46 0 0  1.48 0 0  1.5 0 0  1.52 0 0  1.54 0 0  1.56 0 0  1.58 0 0  1.6 0 0  1.62 0 0  1.64 0 0  1.66 0 0  1.68 0 0  1.7 0 0  1.72 0 0  1.74 0 0  1.76 0 0  1.78 0 0  1.8 0 0  1.82 0 0  1.84 0 0  1.86 0 0  1.88 0 0  1.9 0 0  1.92 0 0  1.94 0 0  1.96 0 0  1.98 0 0  2 0 0  0 0.02 0  0.02 0.02 0  0.04 0.02 0  0.06 0.02 0  0.08 0.02 0  0.1 0.02 0  0.12 0.02 0  0.14 0.02 0  0.16 0.02 0  0.18 0.02 0  0.2 0.02 0  0.22 0.02 0  0.24 0.02 0  0.26 0.02 0  0.28 0.02 0  0.3 0.02 0  0.32 0.02 0  0.34 0.02 0  0.36 0.02 0  0.38 0.02 0  0.4 0.02 0  0.42 0.02 0  0.44 0.02 0  0.46 0.02 0  0.48 0.02 0  0.5 0.02 0  0.52 0.02 0  0.54 0.02 0  0.5600000000000001 0.02 0  0.58 0.02 0  0.6 0.02 0  0.62 0.02 0  0.64 0.02 0  0.66 0.02 0  0.68 0.02 0  0.7 0.02 0  0.72 0.02 0  0.74 0.02 0  0.76 0.02 0  0.78 0.02 0  0.8 0.02 0  0.82 0.02 0  0.84 0.02 0  0.86 0.02 0  0.88 0.02 0  0.9 0.02 0  0.92 0.02 0  0.9399999999999999 0.02 0  0.96 0.02 0  0.98 0.02 0  1 0.02 0  1.02 0.02 0  1.04 0.02 0  1.06 0.02 0  1.08 0.02 0  1.1 0.02 0  1.12 0.02 0  1.14 0.02 0  1.16 0.02 0  1.18 0.02 0  1.2 0.02 0  1.22 0.02 0  1.24 0.02 0  1.26 0.02 0  1.28 0.02 0  1.3 0.02 0  1.32 0.02 0  1.34 0.02 0  1.36 0.02 0  1.38 0.02 0  1.4 0.02 0  1.42 0.02 0  1.44 0.02 0  1.46 0.02 0  1.48 0.02 0  1.5 0.02 0  1.52 0.02 0  1.54 0.02 0  1.56 0.02 0  1.58 0.02 0  1.6 0.02 0  1.62 0.02 0  1.64 0.02 0  1.66 0.02 0  1.68 0.02 0  1.7 0.02 0  1.72 0.02 0  1.74 0.02 0  1.76 0.02 0  1.78 0.02 0  1.8 0.02 0  1.82 0.02 0  1.84 0.02 0  1.86 0.02 0  1.88 0.02 0  1.9 0.02 0  1.92 0.02 0  1.94 0.02 0  1.96 0.02 0  1.98 0.02 0  2 0.02 0  0 0.04 0  0.02 0.04 0  0.04 0.04 0  0.06 0.04 0  0.08 0.04 0  0.1 0.04 0  0.12 0.04 0  0.14 0.04 0  0.16 0.04 0  0.18 0.04 0  0.2 0.04 0  0.22 0.04 0  0.24 0.04 0  0.26 0.04 0  0.28 0.04 0  0.3 0.04 0  0.32 0.04 0  0.34 0.04 0  0.36 0.04 0  0.38 0.04 0  0.4 0.04 0  0.42 0.04 0  0.44 0.04 0  0.46 0.04 0  0.48 0.04 0  0.5 0.04 0  0.52 0.04 0  0.54 0.04 0  0.5600000000000001 0.04 0  0.58 0.04 0  0.6 0.04 0  0.62 0.04 0  0.64 0.04 0  0.66 0.04 0  0.68 0.04 0  0.7 0.04 0  0.72 0.04 0  0.74 0.04 0  0.76 0.04 0  0.78 0.04 0  0.8 0.04 0  0.82 0.04 0  0.84 0.04 0  0.86 0.04 0  0.88 0.04 0  0.9 0.04 0  0.92 0.04 0  0.9399999999999999 0.04 0  0.96 0.04 0  0.98 0.04 0  1 0.04 0  1.02 0.04 0  1.04 0.04 0  1.06 0.04 0  1.08 0.04 0  1.1 0.04 0  1.12 0.04 0  1.14 0.04 0  1.16 0.04 0  1.18 0.04 0  1.2 0.04 0  1.22 0.04 0  1.24 0.04 0  1.26 0.04 0  1.28 0.04 0  1.3 0.04 0  1.32 0.04 0  1.34 0.04 0  1.36 0.04 0  1.38 0.04 0  1.4 0.04 0  1.42 0.04 0  1.44 0.04 0  1.46 0.04 0  1.48 0.04 0  1.5 0.04 0  1.52 0.04 0  1.54 0.04 0  1.56 0.04 0  1.58 0.04 0  1.6 0.04 0  1.62 0.04 0  1.64 0.04 0  1.66 0.04 0  1.68 0.04 0  1.7 0.04 0  1.72 0.04 0  1.74 0.04 0  1.76 0.04 0  1.78 0.04 0  1.8 0.04 0  1.82 0.04 0  1.84 0.04 0  1.86 0.04 0  1.88 0.04 0  1.9 0.04 0  1.92 0.04 0  1.94 0.04 0  1.96 0.04 0  1.98 0.04 0  2 0.04 0  0 0.06 0  0.02 0.06 0  0.04 0.06 0  0.06 0.06 0  0.08 0.06 0  0.1 0.06 0  0.12 0.06 0  0.14 0.06 0  0.16 0.06 0  0.18 0.06 0  0.2 0.06 0  0.22 0.06 0  0.24 0.06 0  0.26 0.06 0  0.28 0.06 0  0.3 0.06 0  0.32 0.06 0  0.34 0.06 0  0.36 0.06 0  0.38 0.06 0  0.4 0.06 0  0.42 0.06 0  0.44 0.06 0  0.46 0.06 0  0.48 0.06 0  0.5 0.06 0  0.52 0.06 0  0.54 0.06 0  0.5600000000000001 0.06 0  0.58 0.06 0  0.6 0.06 0  0.62 0.06 0  0.64 0.06 0  0.66 0.06 0  0.68 0.06 0  0.7 0.06 0  0.72 0.06 0  0.74 0.06 0  0.76 0.06 0  0.78 0.06 0  0.8 0.06 0  0.82 0.06 0  0.84 0.06 0  0.86 0.06 0  0.88 0.06 0  0.9 0.06 0  0.92 0.06 0  0.9399999999999999 0.06 0  0.96 0.06 0  0.98 0.06 0  1 0.06 0  1.02 0.06 0  1.04 0.06 0  1.06 0.06 0  1.08 0.06 0  1.1 0.06 0  1.12 0.06 0  1.14 0.06 0  1.16 0.06 0  1.18 0.06 0  1.2 0.06 0  1.22 0.06 0  1.24 0.06 0  1.26 0.06 0  1.28 0.06 0  1.3 0.06 0  1.32 0.06 0  1.34 0.06 0  1.36 0.06 0  1.38 0.06 0  1.4 0.06 0  1.42 0.06 0  1.44 0.06 0  1.46 0.06 0  1.48 0.06 0  1.5 0.06 0  1.52 0.06 0  1.54 0.06 0  1.56 0.06 0  1.58 0.06 0  1.6 0.06 0  1.62 0.06 0  1.64 0.06 0  1.66 0.06 0  1.68 0.06 0  1.7 0.06 0  1.72 0.06 0  1.74 0.06 0  1.76 0.06 0  1.78 0.06 0  1.8 0.06 0  1.82 0.06 0  1.84 0.06 0  1.86 0.06 0  1.88 0.06 0  1.9 0.06 0  1.92 0.06 0  1.94 0.06 0  1.96 0.06 0  1.98 0.06 0  2 0.06 0  0 0.08 0  0.02 0.08 0  0.04 0.08 0  0.06 0.08 0  0.08 0.08 0  0.1 0.08 0  0.12 0.08 0  0.14 0.08 0  0.16 0.08 0  0.18 0.08 0  0.2 0.08 0  0.22 0.08 0  0.24 0.08 0  0.26 0.08 0  0.28 0.08 0  0.3 0.08 0  0.32 0.08 0  0.34 0.08 0  0.36 0.08 0  0.38 0.08 0  0.4 0.08 0  0.42 0.08 0  0.44 0.08 0  0.46 0.08 0  0.48 0.08 0  0.5 0.08 0  0.52 0.08 0  0.54 0.08 0  0.5600000000000001 0.08 0  0.58 0.08 0  0.6 0.08 0  0.62 0.08 0  0.64 0.08 0  0.66 0.08 0  0.68 0.08 0  0.7 0.08 0  0.72 0.08 0  0.74 0.08 0  0.76 0.08 0  0.78 0.08 0  0.8 0.08 0  0.82 0.08 0  0.84 0.08 0  0.86 0.08 0  0.88 0.08 0  0.9 0.08 0  0.92 0.08 0  0.9399999999999999 0.08 0  0.96 0.08 0  0.98 0.08 0  1 0.08 0  1.02 0.08 0  1.04 0.08 0  1.06 0.08 0  1.08 0.08 0  1.1 0.08 0  1.12 0.08 0  1.14 0.08 0  1.16 0.08 0  1.18 0.08 0  1.2 0.08 0  1.22 0.08 0  1.24 0.08 0  1.26 0.08 0  1.28 0.08 0  1.3 0.08 0  1.32 0.08 0  1.34 0.08 0  1.36 0.08 0  1.38 0.08 0  1.4 0.08 0  1.42 0.08 0  1.44 0.08 0  1.46 0.08 0  1.48 0.08 0  1.5 0.08 0  1.52 0.08 0  1.54 0.08 0  1.56 0.08 0  1.58 0.08 0  1.6 0.08 0  1.62 0.08 0  1.64 0.08 0  1.66 0.08 0  1.68 0.08 0  1.7 0.08 0  1.72 0.08 0  1.74 0.08 0  1.76 0.08 0  1.78 0.08 0  1.8 0.08 0  1.82 0.08 0  1.84 0.08 0  1.86 0.08 0  1.88 0.08 0  1.9 0.08 0  1.92 0.08 0  1.94 0.08 0  1.96 0.08 0  1.98 0.08 0  2 0.08 0  0 0.1 0  0.02 0.1 0  0.04 0.1 0  0.06 0.1 0  0.08 0.1 0  0.1 0.1 0  0.12 0.1 0  0.14 0.1 0  0.16 0.1 0  0.18 0.1 0  0.2 0.1 0  0.22 0.1 0  0.24 0.1 0  0.26 0.1 0  0.28 0.1 0  0.3 0.1 0  0.32 0.1 0  0.34 0.1 0  0.36 0.1 0  0.38 0.1 0  0.4 0.1 0  0.42 0.1 0  0.44 0.1 0  0.46 0.1 0  0.48 0.1 0  0.5 0.1 0  0.52 0.1 0  0.54 0.1 0  0.5600000000000001 0.1 0  0.58 0.1 0  0.6 0.1 0  0.62 0.1 0  0.64 0.1 0  0.66 0.1 0  0.68 0.1 0  0.7 0.1 0  0.72 0.1 0  0.74 0.1 0  0.76 0.1 0  0.78 0.1 0  0.8 0.1 0  0.82 0.1 0  0.84 0.1 0  0.86 0.1 0  0.88 0.1 0  0.9 0.1 0  0.92 0.1 0  0.9399999999999999 0.1 0  0.96 0.1 0  0.98 0.1 0  1 0.1 0  1.02 0.1 0  1.04 0.1 0  1.06 0.1 0  1.08 0.1 0  1.1 0.1 0  1.12 0.1 0  1.14 0.1 0  1.16 0.1 0  1.18 0.1 0  1.2 0.1 0  1.22 0.1 0  1.24 0.1 0  1.26 0.1 0  1.28 0.1 0  1.3 0.1 0  1.32 0.1 0  1.34 0.1 0  1.36 0.1 0  1.38 0.1 0  1.4 0.1 0  1.42 0.1 0  1.44 0.1 0  1.46 0.1 0  1.48 0.1 0  1.5 0.1 0  1.52 0.1 0  1.54 0.1 0  1.56 0.1 0  1.58 0.1 0  1.6 0.1 0  1.62 0.1 0  1.64 0.1 0  1.66 0.1 0  1.68 0.1 0  1.7 0.1 0  1.72 0.1 0  1.74 0.1 0  1.76 0.1 0  1.78 0.1 0  1.8 0.1 0  1.82 0.1 0  1.84 0.1 0  1.86 0.1 0  1.88 0.1 0  1.9 0.1 0  1.92 0.1 0  1.94 0.1 0  1.96 0.1 0  1.98 0.1 0  2 0.1 0  0 0.12 0  0.02 0.12 0  0.04 0.12 0  0.06 0.12 0  0.08 0.12 0  0.1 0.12 0  0.12 0.12 0  0.14 0.12 0  0.16 0.12 0  0.18 0.12 0  0.2 0.12 0  0.22 0.12 0  0.24 0.12 0  0.26 0.12 0  0.28 0.12 0  0.3 0.12 0  0.32 0.12 0  0.34 0.12 0  0.36 0.12 0  0.38 0.12 0  0.4 0.12 0  0.42 0.12 0  0.44 0.12 0  0.46 0.12 0  0.48 0.12 0  0.5 0.12 0  0.52 0.12 0  0.54 0.12 0  0.5600000000000001 0.12 0  0.58 0.12 0  0.6 0.12 0  0.62 0.12 0  0.64 0.12 0  0.66 0.12 0  0.68 0.12 0  0.7 0.12 0  0.72 0.12 0  0.74 0.12 0  0.76 0.12 0  0.78 0.12 0  0.8 0.12 0  0.82 0.12 0  0.84 0.12 0  0.86 0.12 0  0.88 0.12 0  0.9 0.12 0  0.92 0.12 0  0.9399999999999999 0.12 0  0.96 0.12 0  0.98 0.12 0  1 0.12 0  1.02 0.12 0  1.04 0.12 0  1.06 0.12 0  1.08 0.12 0  1.1 0.12 0  1.12 0.12 0  1.14 0.12 0  1.16 0.12 0  1.18 0.12 0  1.2 0.12 0  1.22 0.12 0  1.24 0.12 0  1.26 0.12 0  1.28 0.12 0  1.3 0.12 0  1.32 0.12 0  1.34 0.12 0  1.36 0.12 0  1.38 0.12 0  1.4 0.12 0  1.42 0.12 0  1.44 0.12 0  1.46 0.12 0  1.48 0.12 0  1.5 0.12 0  1.52 0.12 0  1.54 0.12 0  1.56 0.12 0  1.58 0.12 0  1.6 0.12 0  1.62 0.12 0  1.64 0.12 0  1.66 0.12 0  1.68 0.12 0  1.7 0.12 0  1.72 0.12 0  1.74 0.12 0  1.76 0.12 0  1.78 0.12 0  1.8 0.12 0  1.82 0.12 0  1.84 0.12 0  1.86 0.12 0  1.88 0.12 0  1.9 0.12 0  1.92 0.12 0  1.94 0.12 0  1.96 0.12 0  1.98 0.12 0  2 0.12 0  0 0.14 0  0.02 0.14 0  0.04 0.14 0  0.06 0.14 0  0.08 0.14 0  0.1 0.14 0  0.12 0.14 0  0.14 0.14 0  0.16 0.14 0  0.18 0.14 0  0.2 0.14 0  0.22 0.14 0  0.24 0.14 0  0.26 0.14 0  0.28 0.14 0  0.3 0.14 0  0.32 0.14 0  0.34 0.14 0  0.36 0.14 0  0.38 0.14 0  0.4 0.14 0  0.42 0.14 0  0.44 0.14 0  0.46 0.14 0  0.48 0.14 0  0.5 0.14 0  0.52 0.14 0  0.54 0.14 0  0.5600000000000001 0.14 0  0.58 0.14 0  0.6 0.14 0  0.62 0.14 0  0.64 0.14 0  0.66 0.14 0  0.68 0.14 0  0.7 0.14 0  0.72 0.14 0  0.74 0.14 0  0.76 0.14 0  0.78 0.14 0  0.8 0.14 0  0.82 0.14 0  0.84 0.14 0  0.86 0.14 0  0.88 0.14 0  0.9 0.14 0  0.92 0.14 0  0.9399999999999999 0.14 0  0.96 0.14 0  0.98 0.14 0  1 0.14 0  1.02 0.14 0  1.04 0.14 0  1.06 0.14 0  1.08 0.14 0  1.1 0.14 0  1.12 0.14 0  1.14 0.14 0  1.16 0.14 0  1.18 0.14 0  1.2 0.14 0  1.22 0.14 0  1.24 0.14 0  1.26 0.14 0  1.28 0.14 0  1.3 0.14 0  1.32 0.14 0  1.34 0.14 0  1.36 0.14 0  1.38 0.14 0  1.4 0.14 0  1.42 0.14 0  1.44 0.14 0  1.46 0.14 0  1.48 0.14 0  1
[...]
<PointData  Scalars="sols[i]"> 
<DataArray  type="Float64"  Name="sols[i]"  format="ascii">2.0108042979173914e-04  1.3405926201922230e-04  1.3405926220038557e-04  1.3405926255057157e-04  1.3405926317980931e-04  1.3405926427245704e-04  1.3405926612480837e-04  1.3405926919081494e-04  1.3405927412318326e-04  1.3405928177695879e-04  1.3405929311678707e-04  1.3405930895849186e-04  1.3405932952389234e-04  1.3405935392961775e-04  1.3405937990208590e-04  1.3405940399578093e-04  1.3405942234350420e-04  1.3405943174255654e-04  1.3405943070425786e-04  1.3405941995637207e-04  1.3405940206223801e-04  1.3405938039306713e-04  1.3405935809397590e-04  1.3405933747460039e-04  1.3405931985568421e-04  1.3405930569972434e-04  1.3405929485981662e-04  1.3405928684321507e-04  1.3405928103179821e-04  1.3405927683269686e-04  1.3405927375736458e-04  1.3405927144441538e-04  1.3405926964801769e-04  1.3405926821138259e-04  1.3405926703853295e-04  1.3405926607102243e-04  1.3405926527158794e-04  1.3405926461412243e-04  1.3405926407838799e-04  1.3405926364778439e-04  1.3405926330876757e-04  1.3405926305088520e-04  1.3405926286678399e-04  1.3405926275187832e-04  1.3405926270370372e-04  1.3405926272118583e-04  1.3405926280414364e-04  1.3405926295330920e-04  1.3405926317103958e-04  1.3405926346272685e-04  1.3405926383874923e-04  1.3405926431657762e-04  1.3405926492246503e-04  1.3405926569210234e-04  1.3405926666980528e-04  1.3405926790619789e-04  1.3405926945492876e-04  1.3405927136970667e-04  1.3405927370402780e-04  1.3405927651739715e-04  1.3405927989357862e-04  1.3405928397737930e-04  1.3405928903475317e-04  1.3405929553342085e-04  1.3405930422450771e-04  1.3405931617971304e-04  1.3405933271144014e-04  1.3405935509655357e-04  1.3405938406844348e-04  1.3405941915173991e-04  1.3405945805347664e-04  1.3405949643825057e-04  1.3405952849877904e-04  1.3405954854287105e-04  1.3405955295563976e-04  1.3405954130656661e-04  1.3405951614376348e-04  1.3405948192024561e-04  1.3405944365390131e-04  1.3405940576212798e-04  1.3405937138056111e-04  1.3405934223248935e-04  1.3405931886289533e-04  1.3405930100421378e-04  1.3405928792672981e-04  1.3405927871371740e-04  1.3405927244900673e-04  1.3405926832534053e-04  1.3405926569072716e-04  1.3405926405279329e-04  1.3405926305957058e-04  1.3405926247083745e-04  1.3405926212902734e-04  1.3405926193429686e-04  1.3405926182526203e-04  1.3405926176518701e-04  1.3405926173261159e-04  1.3405926171528894e-04  1.3405926170642475e-04  1.3405926170245076e-04  4.0209018249095656e-04  1.3405926202673645e-04  6.7029121604489849e-05  6.7029121706242047e-05  6.7029121908114908e-05  6.7029122275639563e-05  6.7029122921365820e-05  6.7029124030483365e-05  6.7029125895037693e-05  6.7029128950620836e-05  6.7029133795118076e-05  6.7029141146183132e-05  6.7029151675774545e-05  6.7029165683358578e-05  6.7029182679489101e-05  6.7029201117167040e-05  6.7029218514700486e-05  6.7029231994133022e-05  6.7029239099085757e-05  6.7029238632876803e-05  6.7029231098449918e-05  6.7029218413821464e-05  6.7029203085637349e-05  6.7029187405290367e-05  6.7029173011588913e-05  6.7029160809715287e-05  6.7029151088300804e-05  6.7029143708564320e-05  6.7029138296662789e-05  6.7029134401585955e-05  6.7029131600646231e-05  6.7029129552336888e-05  6.7029128008858028e-05  6.7029126804926027e-05  6.7029125837208043e-05  6.7029125043621939e-05  6.7029124386855116e-05  6.7029123843126426e-05  6.7029123395503679e-05  6.7029123030524799e-05  6.7029122736896829e-05  6.7029122505281742e-05  6.7029122328452772e-05  6.7029122201368976e-05  6.7029122120959597e-05  6.7029122085638363e-05  6.7029122094731567e-05  6.7029122148061791e-05  6.7029122245900114e-05  6.7029122389417270e-05  6.7029122581657632e-05  6.7029122828938682e-05  6.7029123142418393e-05  6.7029123539410945e-05  6.7029124043978551e-05  6.7029124686441359e-05  6.7029125501721982e-05  6.7029126526815959e-05  6.7029127798154544e-05  6.7029129350320980e-05  6.7029131218615209e-05  6.7029133449348900e-05  6.7029136122982364e-05  6.7029139394932945e-05  6.7029143554731157e-05  6.7029149093156290e-05  6.7029156747487343e-05  6.7029167471222597e-05  6.7029182261881909e-05  6.7029201805265828e-05  6.7029225975313384e-05  6.7029253335603334e-05  6.7029280872020166e-05  6.7029304304347452e-05  6.7029319286204895e-05  6.7029323016283275e-05  6.7029315129133114e-05  6.7029297499094531e-05  6.7029273400266942e-05  6.7029246499916627e-05  6.7029219986089117e-05  6.7029196070931312e-05  6.7029175925243745e-05  6.7029159878659951e-05  6.7029147697909768e-05  6.7029138839770557e-05  6.7029132643945657e-05  6.7029128461997697e-05  6.7029125730004720e-05  6.7029123997731989e-05  6.7029122928851016e-05  6.7029122285449180e-05  6.7029121906783575e-05  6.7029121688437929e-05  6.7029121564856812e-05  6.7029121496088606e-05  6.7029121458417879e-05  6.7029121438095973e-05  6.7029121427327691e-05  6.7029121421804711e-05  6.7029121419246725e-05  1.3405926170193092e-04  1.3405926223312791e-04  6.7029121717511217e-05  6.7029121885695328e-05  6.7029122222536574e-05  6.7029122842782494e-05  6.7029123948450189e-05  6.7029125882062733e-05  6.7029129205180651e-05  6.7029134797496717e-05  6.7029143940603196e-05  6.7029158286118219e-05  6.7029179531686323e-05  6.7029208642993492e-05  6.7029244747528327e-05  6.7029284385002605e-05  6.7029321819659651e-05  6.7029350357079894e-05  6.7029364326327121e-05  6.7029361195780016e-05  6.7029342671292164e-05  6.7029313748425486e-05  6.7029280367309242e-05  6.7029247477889403e-05  6.7029218269865857e-05  6.7029194254014199e-05  6.7029175668352977e-05  6.7029161941508975e-05  6.7029152114829574e-05  6.7029145166677722e-05  6.7029140210043552e-05  6.7029136572687944e-05  6.7029133795651206e-05  6.7029131590864722e-05  6.7029129788680764e-05  6.7029128292270387e-05  6.7029127044814310e-05  6.7029126009086559e-05  6.7029125156514911e-05  6.7029124462495511e-05  6.7029123905309784e-05  6.7029123466693112e-05  6.7029123132704240e-05  6.7029122894062383e-05  6.7029122745623844e-05  6.7029122685158011e-05  6.7029122711925959e-05  6.7029122825657249e-05  6.7029123026396658e-05  6.7029123315480939e-05  6.7029123697702321e-05  6.7029124184476434e-05  6.7029124797453809e-05  6.7029125571592890e-05  6.7029126556554554e-05  6.7029127815559594e-05  6.7029129421476979e-05  6.7029131450661836e-05  6.7029133975904669e-05  6.7029137061132583e-05  6.7029140762728823e-05  6.7029145145825519e-05  6.7029150327961869e-05  6.7029156564374432e-05  6.7029164383246976e-05  6.7029174756897767e-05  6.7029189248464025e-05  6.7029210007433601e-05  6.7029239436266696e-05  6.7029279391550190e-05  6.7029329989127967e-05  6.7029388347908530e-05  6.7029447732732452e-05  6.7029498034576495e-05  6.7029528917072383e-05  6.7029534258254795e-05  6.7029514099278297e-05  6.7029473550253032e-05  6.7029420484201208e-05  6.7029363178876023e-05  6.7029308366048081e-05  6.7029260282720085e-05  6.7029220811926386e-05  6.7029190131894954e-05  6.7029167391814722e-05  6.7029151244334058e-05  6.7029140219245596e-05  6.7029132957189541e-05  6.7029128327928821e-05  6.7029125463371515e-05  6.7029123737762290e-05  6.7029122723106293e-05  6.7029122139345050e-05  6.7029121810013490e-05  6.7029121627478107e-05  6.7029121527914385e-05  6.7029121474401255e-05  6.7029121446047295e-05  6.7029121431273251e-05  6.7029121423810580e-05  6.7029121420401360e-05  1.3405926170353269e-04  1.3405926264495579e-04  6.7029121948240580e-05  6.7029122254207420e-05  6.7029122871483182e-05  6.7029124020108051e-05  6.7029126094503991e-05  6.7029129781051165e-05  6.7029136246693260e-05  6.7029147411222157e-05  6.7029166251475963e-05  6.7029196904915521e-05  6.7029244052147169e-05  6.7029310931081864e-05  6.7029396083045334e-05  6.7029491022823365e-05  6.7029581154289363e-05  6.7029649244291600e-05  6.7029680584039942e-05  6.7029668956523664e-05  6.7029619908002641e-05  6.7029547568438344e-05  6.7029467359425044e-05  6.7029390968914793e-05  6.7029325131170926e-05  6.7029272488769055e-05  6.7029232845134244e-05  6.7029204324491068e-05  6.7029184370239533e-05  6.7029170481006182e-05  6.7029160618105877e-05  6.7029153324748227e-05  6.7029147664304163e-05  6.7029143084981985e-05  6.7029139282265298e-05  6.7029136091653664e-05  6.7029133418014468e-05  6.7029131195392113e-05  6.7029129367882033e-05  6.7029127883303121e-05  6.7029126693654955e-05  6.7029125758234323e-05  6.7029125046589943e-05  6.7029124539562458e-05  6.7029124227813025e-05  6.7029124108441607e-05  6.7029124181135357e-05  6.7029124445430358e-05  6.7029124900214166e-05  6.7029125546010231e-05  6.7029126390200509e-05  6.7029127454883126e-05  6.7029128786072150e-05  6.7029130461699818e-05  6.7029132595379200e-05  6.7029135333677653e-05  6.7029138846309082e-05  6.7029143310328243e-05  6.7029148890921007e-05  6.7029155723732383e-05  6.7029163908611860e-05  6.7029173533672971e-05  6.7029184761046169e-05  6.7029198016265221e-05  6.7029214318155845e-05  6.7029235740789518e-05  6.7029265883810003e-05  6.7029310034550087e-05  6.7029374510868889e-05  6.7029464714937225e-05  6.7029582025695148e-05  6.7029720425737022e-05  6.7029863609772980e-05  6.7029985068933241e-05  6.7030057127387483e-05  6.7030064825415964e-05  6.7030010396623870e-05  6.7029908508227902e-05  6.7029779690884757e-05  6.7029644517619774e-05  6.7029518711274262e-05  6.7029411133971145e-05  6.7029324881608200e-05  6.7029259321749849e-05  6.7029211795689166e-05  6.7029178806047684e-05  6.7029156803591824e-05  6.7029142655438418e-05  6.7029133853931003e-05  6.7029128539025003e-05  6.7029125413813826e-05  6.7029123619268181e-05  6.7029122610393082e-05  6.7029122053829349e-05  6.7029121751939054e-05  6.7029121590659089e-05  6.7029121505684527e-05  6.7029121461507069e-05  6.7029121438894244e-05  6.7029121427653263e-05  6.7029121422585702e-05  1.3405926170673068e-04  1.3405926341447308e-04  6.7029122383093851e-05  6.7029122952890854e-05  6.7029124110156422e-05  6.7029126282034266e-05  6.7029130243943856e-05  6.7029137371420213e-05  6.7029150075406676e-05  6.7029172512400603e-05  6.7029211562089988e-05  6.7029277599516573e-05  6.7029383600771439e-05  6.7029540154856049e-05  6.7029745574706152e-05  6.7029978470293367e-05  6.7030200947628871e-05  6.7030367827797762e-05  6.7030439830966719e-05  6.7030400966262566e-05  6.7030269086027183e-05  6.7030085082580494e-05  6.7029889394988170e-05  6.7029709361950349e-05  6.7029558702423218e-05  6.7029441486441438e-05  6.7029355581596419e-05  6.7029295387933987e-05  6.7029254197664977e-05  6.7029225894509205e-05  6.7029205784874612e-05  6.7029190711208366e-05  6.7029178770114392e-05  6.7029168916756164e-05  6.7029160615853894e-05  6.7029153594678993e-05  6.7029147694023378e-05  6.7029142791370184e-05  6.7029138769596913e-05  6.7029135511220380e-05  6.7029132905111177e-05  6.7029130857161015e-05  6.7029129298928848e-05  6.7029128190365981e-05  6.7029127515450264e-05  6.7029127272682341e-05  6.7029127464568222e-05  6.7029128090336621e-05  6.7029129144526221e-05  6.7029130622412895e-05  6.7029132532702367e-05  6.7029134917269737e-05  6.7029137875042422e-05  6.7029141583267908e-05  6.7029146307816622e-05  6.7029152396618760e-05  6.7029160255033363e-05  6.7029170305837641e-05  6.7029182938807357e-05  6.7029198458447875e-05  6.7029217048740714e-05  6.7029238796142228e-05  6.7029263847837253e-05  6.7029292822168909e-05  6.7029327601283976e-05  6.7029372556244953e-05  6.7029435981484284e-05  6.7029530969310618e-05  6.7029674257960945e-05  6.7029881432925642e-05  6.7030158723169956e-05  6.7030494267035666e-05  6.7030848722171482e-05  6.7031150482567246e-05  6.7031322424226399e-05  6.7031327962598108e-05  6.7031179568482414e-05  6.7030919334090612e-05  6.7030601048540095e-05  6.7030276596387762e-05  6.7029983040659032e-05  6.7029738373444036e-05  6.7029546632457220e-05  6.7029403991131087e-05  6.7029302803662988e-05  6.7029234133830797e-05  6.7029189399439137e-05  6.7029161320469053e-05  6.7029144272908071e-05  6.7029134224354082e-05  6.7029128454082357e-05  6.7029125216111959e-05  6.7029123435775434e-05  6.7029122474390084e-05  6.7029121963496199e-05  6.7029121695862492e-05  6.7029121557471769e-05  6.7029121486795082e-05  6.7029121451217638e-05  6.7029121433794062e-05  6.7029121426029738e-05  1.3405926171182079e-04  1.3405926481690610e-04  6.7029123180018226e-05  6.7029124241913034e-05  6.7029126412394629e-05  6.7029130515336397e-05  6.7029138056611958e-05  6.7029151734987149e-05  6.7029176381931574e-05  6.7029220689926767e-05  6.7029300091900153e-05  6.7029440120485600e-05  6.7029676502967982e-05  6.7030043389634334e-05  6.7030542414270075e-05  6.7031118378945104e-05  6.7031672367512987e-05  6.7032085782282310e-05  6.7032251858376675e-05  6.7032127667268065e-05  6.7031770659815005e-05  6.7031301262174525e-05  6.7030824610754205e-05  6.7030401916788723e-05  6.7030058539319117e-05  6.7029798708287657e-05  6.7029613675790290e-05  6.7029487618148277e-05  6.7029403260882611e-05  6.7029345853072619e-05  6.7029304771186964e-05  6.7029273334568031e-05  6.7029247808324477e-05  6.7029226312852611e-05  6.7029207972946168e-05  6.7029192371291868e-05  6.7029179249137680e-05  6.7029168369799058e-05  6.7029159475571161e-05  6.7029152292805372e-05  6.7029146558599686e-05  6.7029142052358386e-05  6.7029138619447828e-05  6.7029136177735400e-05  6.7029134704465679e-05  6.7029134209464151e-05  6.7029134706517206e-05  6.7029136194392161e-05  6.7029138653317409e-05  6.7029142057869264e-05  6.7029146407418725e-05  6.7029151775591821e-05  6.7029158372698878e-05  6.7029166602701251e-05  6.7029177091300213e-05  6.7029190669773398e-05  6.7029208313199045e-05  6.7029231040987934e-05  6.7029259789321225e-05  6.7029295267676450e-05  6.7029337830889319e-05  6.7029387450880039e-05  6.7029443968383837e-05  6.7029507934125029e-05  6.7029582449062327e-05  6.7029676321186458e-05  6.7029808264694525e-05  6.7030010397507007e-05  6.7030326906074531e-05  6.7030802168761849e-05  6.7031458684230506e-05  6.7032276394141872e-05  6.7033164085622971e-05  6.7033924514400670e-05  6.7034335262646864e-05  6.7034310528422985e-05  6.7033905348035805e-05  6.7033238848026677e-05  6.7032450215842232e-05  6.7031670836530818e-05  6.7030987270758256e-05  6.7030432595226202e-05  6.7030007670578745e-05  6.7029698277646966e-05  6.7029483650144576e-05  6.7029341426002581e-05  6.7029251063541198e-05  6.7029195775429747e-05  6.7029163052975931e-05  6.7029144240362409e-05  6.7029133694960225e-05  6.7029127912750472e-05  6.7029124802880878e-05  6.7029123158407732e-05  6.7029122301748398e-05  6.7029121861390361e-05  6.7029121637733738e-05  6.7029121525432293e-05  6.7029121469789330e-05  6.7029121442920185e-05  6.7029121431071956e-05  1.3405926171927262e-04  1.3405926734085145e-04  6.7029124620903425e-05  6.7029126588921310e-05  6.7029130637908136e-05  6.7029138345922227e-05  6.7029152602110037e-05  6.7029178576411591e-05  6.7029225563255097e-05  6.7029310802812562e-05  6.7029467277570707e-05  6.7029755822997774e-05  6.7030273567230908e-05  6.7031130332169254e-05  6.7032348505505180e-05  6.7033780267224455e-05  6.7035167518438897e-05  6.7036201365130990e-05  6.7036585961099669e-05  6.7036198707164180e-05  6.7035225685658554e-05  6.7034029012460371e-05  6.7032875877139783e-05  6.7031892258699924e-05  6.7031116163181277e-05  6.7030545392121087e-05  6.7030151547720960e-05  6.7029891450859201e-05  6.7029721264844059e-05  6.7029605988973829e-05  6.7029522156524492e-05  6.7029456141880735e-05  6.7029401012330437e-05  6.7029353667674409e-05  6.7029312856286137e-05  6.7029278027213514e-05  6.7029248770268028e-05  6.7029224601999012e-05  6.7029204930170501e-05  6.7029189101996850e-05  6.7029176487159100e-05  6.7029166564718193e-05  6.7029158985760102e-05  6.7029153588244199e-05  6.7029150357629164e-05  6.7029149351225436e-05  6.7029150620632677e-05  6.7029154163547445e-05  6.7029159916510899e-05  6.7029167785287534e-05  6.7029177716004779e-05  6.7029189818220886e-05  6.7029204529278237e-05  6.7029222768102628e-05  6.7029246011127673e-05  6.7029276250592373e-05  6.7029315838810832e-05  6.7029367244647871e-05  6.7029432741560669e-05  6.7029514035566782e-05  6.7029611870666613e-05  6.7029725766117219e-05  6.7029854284010351e-05  6.7029996603838813e-05  6.7030156595228335e-05  6.7030350671042348e-05  6.7030619629206302e-05  6.7031041057768001e-05  6.7031731152194455e-05  6.7032815125664359e-05  6.7034364707288955e-05  6.7036358367097689e-05  6.7038604512312757e-05  6.7040548593311832e-05  6.7041522070395511e-05  6.7041345748291160e-05  6.7040241248448256e-05  6.7038536017066986e-05  6.7036581920018072e-05  6.7034715124864079e-05  6.7033134807859124e-05  6.7031887540520193e-05  6.7030952928608323e-05  6.7030287014273364e-05  6.7029835942570751e-05  6.7029544734083793e-05  6.7029364716914504e-05  6.7029257583105410e-05  6.7029195877437925e-05  6.7029161319833764e-05  6.7029142426085477e-05  6.7029132307974403e-05  6.7029126985783879e-05  6.7029124229733080e-05  6.7029122822013896e-05  6.7029122111686415e-05  6.7029121757164164e-05  6.7029121582055226e-05  6.7029121496608331e-05  6.7029121455903370e-05  6.7029121438132240e-05  1.3405926172967644e-04  1.3405927184382939e-04  6.7029127202012254e-05  6.7029130821670471e-05  6.7029138323320271e-05  6.7029152723359714e-05  6.7029179548393973e-05  6.7029228557067367e-05  6.7029316856297586e-05  6.7029476091796979e-05  6.7029771457686251e-05  6.7030340111794197e-05  6.7031439153466036e-05  6.7033421273891605e-05  6.7036399551575934e-05  6.7039954788808569e-05  6.7043428134483312e-05  6.7046042891711268e-05  6.7046959831125396e-05  6.7045786006714365e-05  6.7043122353279081e-05  6.7040087353261365e-05  6.7037330207021328e-05  6.7035069273318524e-05  6.7033331784306457e-05  6.7032091029160939e-05  6.7031265357576396e-05  6.7030739105397043e-05  6.7030402199444851e-05  6.7030173170280470e-05  6.7030001862077645e-05  6.7029861912036207e-05  6.7029741521443706e-05  6.7029636321889980e-05  6.7029544992717376e-05  6.7029467012185825e-05  6.7029401718261383e-05  6.7029348049760872e-05  6.7029304595468868e-05  6.7029269772231665e-05  6.7029242055201198e-05  6.7029220207978220e-05  6.7029203446687324e-05  6.7029191472637616e-05  6.7029184354876008e-05  6.7029182316163643e-05  6.7029185523313778e-05  6.7029193968956468e-05  6.7029207462686433e-05  6.7029225701649290e-05  6.7029248429081477e-05  6.7029275737308649e-05  6.7029308504878434e-05  6.7029348816120178e-05  6.7029400164158467e-05  6.7029467335761586e-05  6.7029556013596857e-05  6.7029672187063116e-05  6.7029821414569513e-05  6.7030007906335648e-05  6.7030233418534149e-05  6.7030496190918133e-05  6.7030790743042998e-05  6.7031110366475645e-05  6.7031455541974208e-05  6.7031852615099144e-05  6.7032385859135514e-05  6.7033238414158851e-05  6.7034714961159783e-05  6.7037167499015582e-05  6.7040797622623801e-05  6.7045623194786743e-05  6.7051339862129507e-05  6.7056363518833785e-05  6.7058601355627520e-05  6.7057817548074735e-05  6.7054855648521531e-05  6.7050546644310211e-05  6.7045730446703414e-05  6.7041289617406660e-05  6.7037679066123294e-05  6.7034904338008852e-05  6.7032866226638654e-05  6.7031445702106613e-05  6.7030508483539237e-05  6.7029920953044428e-05  6.7029568695964979e-05  6.7029365312183686e-05  6.7029251531841388e-05  6.7029189539820713e-05  6.7029156508761935e-05  6.7029139239569512e-05  6.7029130356865410e-05  6.7029125852006074e-05  6.7029123595448720e-05  6.7029122477386656e-05  6.7029121928829878e-05  6.7029121662188948e-05  6.7029121533996881e-05  6.7029121473728901e-05  6.7029121447669682e-05  1.3405926174367614e-04  1.3405927982006484e-04  6.7029131788602747e-05  6.7029138384875998e-05  6.7029152166763224e-05  6.7029178912653693e-05  6.7029229315684481e-05  6.7029321987054273e-05  6.7029487475388924e-05  6.7029777343006409e-05  6.7030302903075208e-05  6.7031337417225917e-05  6.7033482086120528e-05  6.7037752024352515e-05  6.7044513786308058e-05  6.7052567793595067e-05  6.7060616743973246e-05  6.7067289934472223e-05  6.7070276783243575e-05  6.7067621106997485e-05  6.7060758148188880e-05  6.7053307407205278e-05  6.70468807421