<?xml version="1.0"?>
<VTKFile type="UnstructuredGrid"  version="0.1"  >
<UnstructuredGrid>
<Piece  NumberOfPoints="5151" NumberOfCells="10000">
<Points>
<DataArray  type="Float64"  NumberOfComponents="3"  format="ascii">0 0 0  0.02 0 0  0.04 0 0  0.06 0 0  0.08 0 0  0.1 0 0  0.12 0 0  0.14 0 0  0.16 0 0  0.18 0 0  0.2 0 0  0.22 0 0  0.24 0 0  0.26 0 0  0.28 0 0  0.3 0 0  0.32 0 0  0.34 0 0  0.36 0 0  0.38 0 0  0.4 0 0  0.42 0 0  0.44 0 0  0.46 0 0  0.48 0 0  0.5 0 0  0.52 0 0  0.54 0 0  0.5600000000000001 0 0  0.58 0 0  0.6 0 0  0.62 0 0  0.64 0 0  0.66 0 0  0.68 0 0  0.7 0 0  0.72 0 0  0.74 0 0  0.76 0 0  0.78 0 0  0.8 0 0  0.82 0 0  0.84 0 0  0.86 0 0  0.88 0 0  0.9 0 0  0.92 0 0  0.9399999999999999 0 0  0.96 0 0  0.98 0 0  1 0 0  1.02 0 0  1.04 0 0  1.06 0 0  1.08 0 0  1.1 0 0  1.12 0 0  1.14 0 0  1.16 0 0  1.18 0 0  1.2 0 0  1.22 0 0  1.24 0 0  1.26 0 0  1.28 0 0  1.3 0 0  1.32 0 0  1.34 0 0  1.36 0 0  1.38 0 0  1.4 0 0  1.42 0 0  1.44 0 0  1.46 0 0  1.48 0 0  1.5 0 0  1.52 0 0  1.54 0 0  1.56 0 0  1.58 0 0  1.6 0 0  1.62 0 0  1.64 0 0  1.66 0 0  1.68 0 0  1.7 0 0  1.72 0 0  1.74 0 0  1.76 0 0  1.78 0 0  1.8 0 0  1.82 0 0  1.84 0 0  1.86 0 0  1.88 0 0  1.9 0 0  1.92 0 0  1.94 0 0  1.96 0 0  1.98 0 0  2 0 0  0 0.02 0  0.02 0.02 0  0.04 0.02 0  0.06 0.02 0  0.08 0.02 0  0.1 0.02 0  0.12 0.02 0  0.14 0.02 0  0.16 0.02 0  0.18 0.02 0  0.2 0.02 0  0.22 0.02 0  0.24 0.02 0  0.26 0.02 0  0.28 0.02 0  0.3 0.02 0  0.32 0.02 0  0.34 0.02 0  0.36 0.02 0  0.38 0.02 0  0.4 0.02 0  0.42 0.02 0  0.44 0.02 0  0.46 0.02 0  0.48 0.02 0  0.5 0.02 0  0.52 0.02 0  0.54 0.02 0  0.5600000000000001 0.02 0  0.58 0.02 0  0.6 0.02 0  0.62 0.02 0  0.64 0.02 0  0.66 0.02 0  0.68 0.02 0  0.7 0.02 0  0.72 0.02 0  0.74 0.02 0  0.76 0.02 0  0.78 0.02 0  0.8 0.02 0  0.82 0.02 0  0.84 0.02 0  0.86 0.02 0  0.88 0.02 0  0.9 0.02 0  0.92 0.02 0  0.9399999999999999 0.02 0  0.96 0.02 0  0.98 0.02 0  1 0.02 0  1.02 0.02 0  1.04 0.02 0  1.06 0.02 0  1.08 0.02 0  1.1 0.02 0  1.12 0.02 0  1.14 0.02 0  1.16 0.02 0  1.18 0.02 0  1.2 0.02 0  1.22 0.02 0  1.24 0.02 0  1.26 0.02 0  1.28 0.02 0  1.3 0.02 0  1.32 0.02 0  1.34 0.02 0  1.36 0.02 0  1.38 0.02 0  1.4 0.02 0  1.42 0.02 0  1.44 0.02 0  1.46 0.02 0  1.48 0.02 0  1.5 0.02 0  1.52 0.02 0  1.54 0.02 0  1.56 0.02 0  1.58 0.02 0  1.6 0.02 0  1.62 0.02 0  1.64 0.02 0  1.66 0.02 0  1.68 0.02 0  1.7 0.02 0  1.72 0.02 0  1.74 0.02 0  1.76 0.02 0  1.78 0.02 0  1.8 0.02 0  1.82 0.02 0  1.84 0.02 0  1.86 0.02 0  1.88 0.02 0  1.9 0.02 0  1.92 0.02 0  1.94 0.02 0  1.96 0.02 0  1.98 0.02 0  2 0.02 0  0 0.04 0  0.02 0.04 0  0.04 0.04 0  0.06 0.04 0  0.08 0.04 0  0.1 0.04 0  0.12 0.04 0  0.14 0.04 0  0.16 0.04 0  0.18 0.04 0  0.2 0.04 0  0.22 0.04 0  0.24 0.04 0  0.26 0.04 0  0.28 0.04 0  0.3 0.04 0  0.32 0.04 0  0.34 0.04 0  0.36 0.04 0  0.38 0.04 0  0.4 0.04 0  0.42 0.04 0  0.44 0.04 0  0.46 0.04 0  0.48 0.04 0  0.5 0.04 0  0.52 0.04 0  0.54 0.04 0  0.5600000000000001 0.04 0  0.58 0.04 0  0.6 0.04 0  0.62 0.04 0  0.64 0.04 0  0.66 0.04 0  0.68 0.04 0  0.7 0.04 0  0.72 0.04 0  0.74 0.04 0  0.76 0.04 0  0.78 0.04 0  0.8 0.04 0  0.82 0.04 0  0.84 0.04 0  0.86 0.04 0  0.88 0.04 0  0.9 0.04 0  0.92 0.04 0  0.9399999999999999 0.04 0  0.96 0.04 0  0.98 0.04 0  1 0.04 0  1.02 0.04 0  1.04 0.04 0  1.06 0.04 0  1.08 0.04 0  1.1 0.04 0  1.12 0.04 0  1.14 0.04 0  1.16 0.04 0  1.18 0.04 0  1.2 0.04 0  1.22 0.04 0  1.24 0.04 0  1.26 0.04 0  1.28 0.04 0  1.3 0.04 0  1.32 0.04 0  1.34 0.04 0  1.36 0.04 0  1.38 0.04 0  1.4 0.04 0  1.42 0.04 0  1.44 0.04 0  1.46 0.04 0  1.48 0.04 0  1.5 0.04 0  1.52 0.04 0  1.54 0.04 0  1.56 0.04 0  1.58 0.04 0  1.6 0.04 0  1.62 0.04 0  1.64 0.04 0  1.66 0.04 0  1.68 0.04 0  1.7 0.04 0  1.72 0.04 0  1.74 0.04 0  1.76 0.04 0  1.78 0.04 0  1.8 0.04 0  1.82 0.04 0  1.84 0.04 0  1.86 0.04 0  1.88 0.04 0  1.9 0.04 0  1.92 0.04 0  1.94 0.04 0  1.96 0.04 0  1.98 0.04 0  2 0.04 0  0 0.06 0  0.02 0.06 0  0.04 0.06 0  0.06 0.06 0  0.08 0.06 0  0.1 0.06 0  0.12 0.06 0  0.14 0.06 0  0.16 0.06 0  0.18 0.06 0  0.2 0.06 0  0.22 0.06 0  0.24 0.06 0  0.26 0.06 0  0.28 0.06 0  0.3 0.06 0  0.32 0.06 0  0.34 0.06 0  0.36 0.06 0  0.38 0.06 0  0.4 0.06 0  0.42 0.06 0  0.44 0.06 0  0.46 0.06 0  0.48 0.06 0  0.5 0.06 0  0.52 0.06 0  0.54 0.06 0  0.5600000000000001 0.06 0  0.58 0.06 0  0.6 0.06 0  0.62 0.06 0  0.64 0.06 0  0.66 0.06 0  0.68 0.06 0  0.7 0.06 0  0.72 0.06 0  0.74 0.06 0  0.76 0.06 0  0.78 0.06 0  0.8 0.06 0  0.82 0.06 0  0.84 0.06 0  0.86 0.06 0  0.88 0.06 0  0.9 0.06 0  0.92 0.06 0  0.9399999999999999 0.06 0  0.96 0.06 0  0.98 0.06 0  1 0.06 0  1.02 0.06 0  1.04 0.06 0  1.06 0.06 0  1.08 0.06 0  1.1 0.06 0  1.12 0.06 0  1.14 0.06 0  1.16 0.06 0  1.18 0.06 0  1.2 0.06 0  1.22 0.06 0  1.24 0.06 0  1.26 0.06 0  1.28 0.06 0  1.3 0.06 0  1.32 0.06 0  1.34 0.06 0  1.36 0.06 0  1.38 0.06 0  1.4 0.06 0  1.42 0.06 0  1.44 0.06 0  1.46 0.06 0  1.48 0.06 0  1.5 0.06 0  1.52 0.06 0  1.54 0.06 0  1.56 0.06 0  1.58 0.06 0  1.6 0.06 0  1.62 0.06 0  1.64 0.06 0  1.66 0.06 0  1.68 0.06 0  1.7 0.06 0  1.72 0.06 0  1.74 0.06 0  1.76 0.06 0  1.78 0.06 0  1.8 0.06 0  1.82 0.06 0  1.84 0.06 0  1.86 0.06 0  1.88 0.06 0  1.9 0.06 0  1.92 0.06 0  1.94 0.06 0  1.96 0.06 0  1.98 0.06 0  2 0.06 0  0 0.08 0  0.02 0.08 0  0.04 0.08 0  0.06 0.08 0  0.08 0.08 0  0.1 0.08 0  0.12 0.08 0  0.14 0.08 0  0.16 0.08 0  0.18 0.08 0  0.2 0.08 0  0.22 0.08 0  0.24 0.08 0  0.26 0.08 0  0.28 0.08 0  0.3 0.08 0  0.32 0.08 0  0.34 0.08 0  0.36 0.08 0  0.38 0.08 0  0.4 0.08 0  0.42 0.08 0  0.44 0.08 0  0.46 0.08 0  0.48 0.08 0  0.5 0.08 0  0.52 0.08 0  0.54 0.08 0  0.5600000000000001 0.08 0  0.58 0.08 0  0.6 0.08 0  0.62 0.08 0  0.64 0.08 0  0.66 0.08 0  0.68 0.08 0  0.7 0.08 0  0.72 0.08 0  0.74 0.08 0  0.76 0.08 0  0.78 0.08 0  0.8 0.08 0  0.82 0.08 0  0.84 0.08 0  0.86 0.08 0  0.88 0.08 0  0.9 0.08 0  0.92 0.08 0  0.9399999999999999 0.08 0  0.96 0.08 0  0.98 0.08 0  1 0.08 0  1.02 0.08 0  1.04 0.08 0  1.06 0.08 0  1.08 0.08 0  1.1 0.08 0  1.12 0.08 0  1.14 0.08 0  1.16 0.08 0  1.18 0.08 0  1.2 0.08 0  1.22 0.08 0  1.24 0.08 0  1.26 0.08 0  1.28 0.08 0  1.3 0.08 0  1.32 0.08 0  1.34 0.08 0  1.36 0.08 0  1.38 0.08 0  1.4 0.08 0  1.42 0.08 0  1.44 0.08 0  1.46 0.08 0  1.48 0.08 0  1.5 0.08 0  1.52 0.08 0  1.54 0.08 0  1.56 0.08 0  1.58 0.08 0  1.6 0.08 0  1.62 0.08 0  1.64 0.08 0  1.66 0.08 0  1.68 0.08 0  1.7 0.08 0  1.72 0.08 0  1.74 0.08 0  1.76 0.08 0  1.78 0.08 0  1.8 0.08 0  1.82 0.08 0  1.84 0.08 0  1.86 0.08 0  1.88 0.08 0  1.9 0.08 0  1.92 0.08 0  1.94 0.08 0  1.96 0.08 0  1.98 0.08 0  2 0.08 0  0 0.1 0  0.02 0.1 0  0.04 0.1 0  0.06 0.1 0  0.08 0.1 0  0.1 0.1 0  0.12 0.1 0  0.14 0.1 0  0.16 0.1 0  0.18 0.1 0  0.2 0.1 0  0.22 0.1 0  0.24 0.1 0  0.26 0.1 0  0.28 0.1 0  0.3 0.1 0  0.32 0.1 0  0.34 0.1 0  0.36 0.1 0  0.38 0.1 0  0.4 0.1 0  0.42 0.1 0  0.44 0.1 0  0.46 0.1 0  0.48 0.1 0  0.5 0.1 0  0.52 0.1 0  0.54 0.1 0  0.5600000000000001 0.1 0  0.58 0.1 0  0.6 0.1 0  0.62 0.1 0  0.64 0.1 0  0.66 0.1 0  0.68 0.1 0  0.7 0.1 0  0.72 0.1 0  0.74 0.1 0  0.76 0.1 0  0.78 0.1 0  0.8 0.1 0  0.82 0.1 0  0.84 0.1 0  0.86 0.1 0  0.88 0.1 0  0.9 0.1 0  0.92 0.1 0  0.9399999999999999 0.1 0  0.96 0.1 0  0.98 0.1 0  1 0.1 0  1.02 0.1 0  1.04 0.1 0  1.06 0.1 0  1.08 0.1 0  1.1 0.1 0  1.12 0.1 0  1.14 0.1 0  1.16 0.1 0  1.18 0.1 0  1.2 0.1 0  1.22 0.1 0  1.24 0.1 0  1.26 0.1 0  1.28 0.1 0  1.3 0.1 0  1.32 0.1 0  1.34 0.1 0  1.36 0.1 0  1.38 0.1 0  1.4 0.1 0  1.42 0.1 0  1.44 0.1 0  1.46 0.1 0  1.48 0.1 0  1.5 0.1 0  1.52 0.1 0  1.54 0.1 0  1.56 0.1 0  1.58 0.1 0  1.6 0.1 0  1.62 0.1 0  1.64 0.1 0  1.66 0.1 0  1.68 0.1 0  1.7 0.1 0  1.72 0.1 0  1.74 0.1 0  1.76 0.1 0  1.78 0.1 0  1.8 0.1 0  1.82 0.1 0  1.84 0.1 0  1.86 0.1 0  1.88 0.1 0  1.9 0.1 0  1.92 0.1 0  1.94 0.1 0  1.96 0.1 0  1.98 0.1 0  2 0.1 0  0 0.12 0  0.02 0.12 0  0.04 0.12 0  0.06 0.12 0  0.08 0.12 0  0.1 0.12 0  0.12 0.12 0  0.14 0.12 0  0.16 0.12 0  0.18 0.12 0  0.2 0.12 0  0.22 0.12 0  0.24 0.12 0  0.26 0.12 0  0.28 0.12 0  0.3 0.12 0  0.32 0.12 0  0.34 0.12 0  0.36 0.12 0  0.38 0.12 0  0.4 0.12 0  0.42 0.12 0  0.44 0.12 0  0.46 0.12 0  0.48 0.12 0  0.5 0.12 0  0.52 0.12 0  0.54 0.12 0  0.5600000000000001 0.12 0  0.58 0.12 0  0.6 0.12 0  0.62 0.12 0  0.64 0.12 0  0.66 0.12 0  0.68 0.12 0  0.7 0.12 0  0.72 0.12 0  0.74 0.12 0  0.76 0.12 0  0.78 0.12 0  0.8 0.12 0  0.82 0.12 0  0.84 0.12 0  0.86 0.12 0  0.88 0.12 0  0.9 0.12 0  0.92 0.12 0  0.9399999999999999 0.12 0  0.96 0.12 0  0.98 0.12 0  1 0.12 0  1.02 0.12 0  1.04 0.12 0  1.06 0.12 0  1.08 0.12 0  1.1 0.12 0  1.12 0.12 0  1.14 0.12 0  1.16 0.12 0  1.18 0.12 0  1.2 0.12 0  1.22 0.12 0  1.24 0.12 0  1.26 0.12 0  1.28 0.12 0  1.3 0.12 0  1.32 0.12 0  1.34 0.12 0  1.36 0.12 0  1.38 0.12 0  1.4 0.12 0  1.42 0.12 0  1.44 0.12 0  1.46 0.12 0  1.48 0.12 0  1.5 0.12 0  1.52 0.12 0  1.54 0.12 0  1.56 0.12 0  1.58 0.12 0  1.6 0.12 0  1.62 0.12 0  1.64 0.12 0  1.66 0.12 0  1.68 0.12 0  1.7 0.12 0  1.72 0.12 0  1.74 0.12 0  1.76 0.12 0  1.78 0.12 0  1.8 0.12 0  1.82 0.12 0  1.84 0.12 0  1.86 0.12 0  1.88 0.12 0  1.9 0.12 0  1.92 0.12 0  1.94 0.12 0  1.96 0.12 0  1.98 0.12 0  2 0.12 0  0 0.14 0  0.02 0.14 0  0.04 0.14 0  0.06 0.14 0  0.08 0.14 0  0.1 0.14 0  0.12 0.14 0  0.14 0.14 0  0.16 0.14 0  0.18 0.14 0  0.2 0.14 0  0.22 0.14 0  0.24 0.14 0  0.26 0.14 0  0.28 0.14 0  0.3 0.14 0  0.32 0.14 0  0.34 0.14 0  0.36 0.14 0  0.38 0.14 0  0.4 0.14 0  0.42 0.14 0  0.44 0.14 0  0.46 0.14 0  0.48 0.14 0  0.5 0.14 0  0.52 0.14 0  0.54 0.14 0  0.5600000000000001 0.14 0  0.58 0.14 0  0.6 0.14 0  0.62 0.14 0  0.64 0.14 0  0.66 0.14 0  0.68 0.14 0  0.7 0.14 0  0.72 0.14 0  0.74 0.14 0  0.76 0.14 0  0.78 0.14 0  0.8 0.14 0  0.82 0.14 0  0.84 0.14 0  0.86 0.14 0  0.88 0.14 0  0.9 0.14 0  0.92 0.14 0  0.9399999999999999 0.14 0  0.96 0.14 0  0.98 0.14 0  1 0.14 0  1.02 0.14 0  1.04 0.14 0  1.06 0.14 0  1.08 0.14 0  1.1 0.14 0  1.12 0.14 0  1.14 0.14 0  1.16 0.14 0  1.18 0.14 0  1.2 0.14 0  1.22 0.14 0  1.24 0.14 0  1.26 0.14 0  1.28 0.14 0  1.3 0.14 0  1.32 0.14 0  1.34 0.14 0  1.36 0.14 0  1.38 0.14 0  1.4 0.14 0  1.42 0.14 0  1.44 0.14 0  1.46 0.14 0  1.48 0.14 0  1
[...]
<PointData  Scalars="sols[i]"> 
<DataArray  type="Float64"  Name="sols[i]"  format="ascii">7.5494871093396992e-05  5.0322589554585757e-05  5.0322589554590121e-05  5.0322589554598903e-05  5.0322589554615451e-05  5.0322589554645578e-05  5.0322589554699382e-05  5.0322589554794019e-05  5.0322589554957354e-05  5.0322589555234137e-05  5.0322589555694015e-05  5.0322589556441816e-05  5.0322589557630007e-05  5.0322589559472148e-05  5.0322589562254712e-05  5.0322589566344580e-05  5.0322589572191086e-05  5.0322589580321505e-05  5.0322589591337812e-05  5.0322589605933626e-05  5.0322589624955113e-05  5.0322589649538449e-05  5.0322589681348480e-05  5.0322589722916262e-05  5.0322589778045341e-05  5.0322589852230289e-05  5.0322589953019119e-05  5.0322590090281594e-05  5.0322590276394018e-05  5.0322590526421271e-05  5.0322590858442018e-05  5.0322591294188956e-05  5.0322591860181562e-05  5.0322592589499549e-05  5.0322593524325374e-05  5.0322594719395391e-05  5.0322596246559623e-05  5.0322598200755841e-05  5.0322600707875908e-05  5.0322603935216219e-05  5.0322608105472129e-05  5.0322613515547878e-05  5.0322620561809605e-05  5.0322629773750724e-05  5.0322641858292086e-05  5.0322657756808625e-05  5.0322678715932371e-05  5.0322706370262911e-05  5.0322742828928885e-05  5.0322790746944212e-05  5.0322853345803156e-05  5.0322934327661352e-05  5.0323037610985099e-05  5.0323166816977955e-05  5.0323324474368217e-05  5.0323510999640916e-05  5.0323723645613361e-05  5.0323955755564832e-05  5.0324196738101682e-05  5.0324433090076552e-05  5.0324650469188239e-05  5.0324836319665120e-05  5.0324982162577994e-05  5.0325084706458919e-05  5.0325145450812653e-05  5.0325169107113434e-05  5.0325161547989114e-05  5.0325127979875385e-05  5.0325071763349810e-05  5.0324994019026908e-05  5.0324893982787959e-05  5.0324769972866107e-05  5.0324620740593992e-05  5.0324446902214848e-05  5.0324252113109782e-05  5.0324043654827665e-05  5.0323832146027147e-05  5.0323630179801177e-05  5.0323449919539327e-05  5.0323300120042465e-05  5.0323183553349846e-05  5.0323096070599690e-05  5.0323028245573373e-05  5.0322969453649502e-05  5.0322912323379085e-05  5.0322854740493048e-05  5.0322798674927934e-05  5.0322747547965950e-05  5.0322704099350706e-05  5.0322669503752551e-05  5.0322643479707056e-05  5.0322624833022803e-05  5.0322612015078709e-05  5.0322603511628568e-05  5.0322598042110080e-05  5.0322594620047479e-05  5.0322592535318578e-05  5.0322591304446904e-05  5.0322590616758364e-05  5.0322590290754099e-05  1.5104398675350655e-04  5.0322589554585445e-05  2.5154530962245291e-05  2.5154530962247683e-05  2.5154530962252589e-05  2.5154530962261934e-05  2.5154530962279173e-05  2.5154530962310255e-05  2.5154530962365489e-05  2.5154530962461881e-05  2.5154530962627005e-05  2.5154530962904473e-05  2.5154530963360834e-05  2.5154530964094310e-05  2.5154530965244350e-05  2.5154530967000493e-05  2.5154530969608217e-05  2.5154530973369978e-05  2.5154530978640746e-05  2.5154530985821410e-05  2.5154530995362375e-05  2.5154531007795599e-05  2.5154531023819423e-05  2.5154531044456249e-05  2.5154531071286045e-05  2.5154531106733825e-05  2.5154531154368681e-05  2.5154531219162093e-05  2.5154531307669752e-05  2.5154531428139643e-05  2.5154531590599607e-05  2.5154531807027733e-05  2.5154532091731119e-05  2.5154532462056573e-05  2.5154532939534853e-05  2.5154533551538383e-05  2.5154534333534433e-05  2.5154535332053504e-05  2.5154536608563340e-05  2.5154538244551790e-05  2.5154540348267660e-05  2.5154543063747559e-05  2.5154546582971792e-05  2.5154551162239163e-05  2.5154557144116964e-05  2.5154564986564569e-05  2.5154575300902406e-05  2.5154588899874344e-05  2.5154606855498047e-05  2.5154630562700352e-05  2.5154661797604561e-05  2.5154702747795635e-05  2.5154755976496941e-05  2.5154824267641585e-05  2.5154910294401736e-05  2.5155016074895422e-05  2.5155142239116304e-05  2.5155287231351970e-05  2.5155446688931733e-05  2.5155613318071404e-05  2.5155777550689043e-05  2.5155929035793085e-05  2.5156058618604621e-05  2.5156160112474041e-05  2.5156231175821285e-05  2.5156273021462637e-05  2.5156289218549569e-05  2.5156284150887262e-05  2.5156261664769768e-05  2.5156224208277210e-05  2.5156172540624672e-05  2.5156105976997930e-05  2.5156023077097986e-05  2.5155922621924598e-05  2.5155804666875123e-05  2.5155671431623400e-05  2.5155527794199078e-05  2.5155381177384828e-05  2.5155240654318134e-05  2.5155115236705810e-05  2.5155011629729249e-05  2.5154932165770548e-05  2.5154873880397810e-05  2.5154829582123357e-05  2.5154791037095327e-05  2.5154752645611237e-05  2.5154713057342505e-05  2.5154674082546783e-05  2.5154638495912931e-05  2.5154608393563579e-05  2.5154584607258473e-05  2.5154566872780721e-05  2.5154554281614418e-05  2.5154545703132818e-05  2.5154540059913751e-05  2.5154536458460062e-05  2.5154534221216706e-05  2.5154532866619268e-05  2.5154532069938079e-05  2.5154531623335994e-05  2.5154531403502511e-05  5.0322590281423780e-05  5.0322589554588725e-05  2.5154530962247182e-05  2.5154530962250922e-05  2.5154530962258701e-05  2.5154530962273724e-05  2.5154530962301832e-05  2.5154530962353305e-05  2.5154530962446214e-05  2.5154530962611060e-05  2.5154530962898218e-05  2.5154530963388833e-05  2.5154530964209262e-05  2.5154530965549492e-05  2.5154530967684042e-05  2.5154530970991781e-05  2.5154530975969156e-05  2.5154530983231217e-05  2.5154530993495853e-05  2.5154531007557231e-05  2.5154531026272125e-05  2.5154531050602862e-05  2.5154531081775592e-05  2.5154531121606321e-05  2.5154531173004463e-05  2.5154531240602950e-05  2.5154531331407396e-05  2.5154531455335032e-05  2.5154531625550477e-05  2.5154531858597640e-05  2.5154532174451286e-05  2.5154532596726660e-05  2.5154533153332711e-05  2.5154533877831080e-05  2.5154534811692386e-05  2.5154536007577756e-05  2.5154537533770042e-05  2.5154539479954277e-05  2.5154541964698885e-05  2.5154545145218081e-05  2.5154549230294820e-05  2.5154554497605814e-05  2.5154561317126281e-05  2.5154570182807040e-05  2.5154581755321505e-05  2.5154596919344625e-05  2.5154616859354731e-05  2.5154643157779072e-05  2.5154677917177984e-05  2.5154723901778246e-05  2.5154784679721878e-05  2.5154864722462028e-05  2.5154969380892238e-05  2.5155104616374116e-05  2.5155276341630140e-05  2.5155489260042737e-05  2.5155745221629915e-05  2.5156041350638762e-05  2.5156368496286695e-05  2.5156710797000293e-05  2.5157047124029590e-05  2.5157354627188546e-05  2.5157613524683948e-05  2.5157811292855172e-05  2.5157944473785791e-05  2.5158017547859980e-05  2.5158039756219542e-05  2.5158021406771516e-05  2.5157970916323681e-05  2.5157893124325598e-05  2.5157788874232644e-05  2.5157655715303869e-05  2.5157489536352153e-05  2.5157286800167772e-05  2.5157046914770107e-05  2.5156774224394618e-05  2.5156479142761811e-05  2.5156177981943976e-05  2.5155891023808595e-05  2.5155638595773116e-05  2.5155435692306247e-05  2.5155286861747862e-05  2.5155183753165548e-05  2.5155107695021980e-05  2.5155038309546438e-05  2.5154963507956664e-05  2.5154882768542554e-05  2.5154802682163477e-05  2.5154730660333042e-05  2.5154671304287275e-05  2.5154625800890007e-05  2.5154592911515041e-05  2.5154570252587911e-05  2.5154555246589094e-05  2.5154545632621777e-05  2.5154539645923728e-05  2.5154536011001436e-05  2.5154533856498203e-05  2.5154532614017015e-05  2.5154531929667370e-05  2.5154531598111664e-05  5.0322590564850071e-05  5.0322589554594851e-05  2.5154530962250814e-05  2.5154530962257231e-05  2.5154530962270756e-05  2.5154530962297211e-05  2.5154530962347396e-05  2.5154530962440942e-05  2.5154530962612558e-05  2.5154530962922314e-05  2.5154530963471402e-05  2.5154530964426028e-05  2.5154530966050441e-05  2.5154530968750030e-05  2.5154530973121973e-05  2.5154530980005099e-05  2.5154530990515321e-05  2.5154531006047892e-05  2.5154531028231225e-05  2.5154531058837513e-05  2.5154531099701351e-05  2.5154531152756289e-05  2.5154531220348644e-05  2.5154531305976547e-05  2.5154531415494539e-05  2.5154531558651374e-05  2.5154531750671527e-05  2.5154532013527914e-05  2.5154532376642441e-05  2.5154532876991403e-05  2.5154533558928678e-05  2.5154534474337831e-05  2.5154535683838166e-05  2.5154537259667998e-05  2.5154539290642948e-05  2.5154541889396985e-05  2.5154545202088984e-05  2.5154549420931084e-05  2.5154554800252123e-05  2.5154561677330192e-05  2.5154570499900654e-05  2.5154581863058952e-05  2.5154596559242797e-05  2.5154615646134289e-05  2.5154640538754975e-05  2.5154673133804661e-05  2.5154715976215507e-05  2.5154772479023968e-05  2.5154847205416739e-05  2.5154946210749310e-05  2.5155077413727486e-05  2.5155250908807964e-05  2.5155479038061489e-05  2.5155775920654028e-05  2.5156156045971102e-05  2.5156631578290508e-05  2.5157208317321282e-05  2.5157880861307428e-05  2.5158628329004215e-05  2.5159412750766760e-05  2.5160182399406264e-05  2.5160881007229744e-05  2.5161460622366955e-05  2.5161892712230309e-05  2.5162172355460356e-05  2.5162314298603162e-05  2.5162343912981827e-05  2.5162287545990010e-05  2.5162165464759354e-05  2.5161988288251967e-05  2.5161756413745860e-05  2.5161461978277016e-05  2.5161093019360435e-05  2.5160639061386495e-05  2.5160096991416753e-05  2.5159475973685054e-05  2.5158800351194700e-05  2.5158109553179319e-05  2.5157453726365964e-05  2.5156883996590210e-05  2.5156438322733965e-05  2.5156127513013028e-05  2.5155927707860163e-05  2.5155786293231045e-05  2.5155647238907617e-05  2.5155481718394550e-05  2.5155295149608305e-05  2.5155109991714452e-05  2.5154946794488957e-05  2.5154816077830716e-05  2.5154718926896534e-05  2.5154650829197301e-05  2.5154605260474197e-05  2.5154575890618413e-05  2.5154557542251201e-05  2.5154546381621293e-05  2.5154539752812957e-05  2.5154535904298528e-05  2.5154533727183357e-05  2.5154532548241511e-05  2.5154531984687486e-05  5.0322591151065365e-05  5.0322589554605490e-05  2.5154530962257190e-05  2.5154530962268412e-05  2.5154530962292413e-05  2.5154530962339942e-05  2.5154530962431510e-05  2.5154530962604907e-05  2.5154530962928250e-05  2.5154530963521682e-05  2.5154530964591803e-05  2.5154530966484888e-05  2.5154530969762925e-05  2.5154530975306424e-05  2.5154530984439038e-05  2.5154530999056787e-05  2.5154531021726052e-05  2.5154531055697352e-05  2.5154531104781597e-05  2.5154531173079462e-05  2.5154531264669352e-05  2.5154531383531927e-05  2.5154531534147470e-05  2.5154531723198407e-05  2.5154531962521142e-05  2.5154532272960818e-05  2.5154532688337522e-05  2.5154533258555257e-05  2.5154534051102762e-05  2.5154535150833773e-05  2.5154536658835911e-05  2.5154538692010341e-05  2.5154541385254318e-05  2.5154544897767054e-05  2.5154549424297891e-05  2.5154555211602418e-05  2.5154562580291695e-05  2.5154571952694539e-05  2.5154583888209975e-05  2.5154599128841777e-05  2.5154618659153945e-05  2.5154643786741544e-05  2.5154676251476614e-05  2.5154718374353774e-05  2.5154773260047854e-05  2.5154845071745800e-05  2.5154939402500894e-05  2.5155063773105841e-05  2.5155228287358051e-05  2.5155446459105680e-05  2.5155736169557198e-05  2.5156120585990298e-05  2.5156628638369720e-05  2.5157294309475895e-05  2.5158153671931685e-05  2.5159238594437983e-05  2.5160566705667280e-05  2.5162128740043996e-05  2.5163876575538531e-05  2.5165717591453361e-05  2.5167522151634293e-05  2.5169148012457517e-05  2.5170475809637429e-05  2.5171439341516482e-05  2.5172035241561916e-05  2.5172309602200582e-05  2.5172331966381131e-05  2.5172169949587981e-05  2.5171872584928453e-05  2.5171463161240189e-05  2.5170938831099719e-05  2.5170275854193144e-05  2.5169440249089316e-05  2.5168401949984771e-05  2.5167149570967392e-05  2.5165702619643911e-05  2.5164118930768545e-05  2.5162495394062598e-05  2.5160958384996319e-05  2.5159639510021857e-05  2.5158637753617730e-05  2.5157980828839348e-05  2.5157601728345465e-05  2.5157349469566522e-05  2.5157065277387096e-05  2.5156681127126564e-05  2.5156232070361213e-05  2.5155791114645560e-05  2.5155413259952930e-05  2.5155120533025779e-05  2.5154910112198742e-05  2.5154767162575338e-05  2.5154674198510683e-05  2.5154615811790243e-05  2.5154580185595283e-05  2.5154558982449260e-05  2.5154546643589569e-05  2.5154539617068325e-05  2.5154535713418562e-05  2.5154533633103719e-05  2.5154532650209391e-05  5.0322592164277761e-05  5.0322589554623176e-05  2.5154530962267897e-05  2.5154530962287507e-05  2.5154530962329852e-05  2.5154530962414888e-05  2.5154530962581136e-05  2.5154530962900901e-05  2.5154530963507045e-05  2.5154530964638383e-05  2.5154530966714379e-05  2.5154530970452634e-05  2.5154530977043817e-05  2.5154530988395041e-05  2.5154531007437447e-05  2.5154531038461810e-05  2.5154531087394429e-05  2.5154531161868141e-05  2.5154531270916667e-05  2.5154531424205141e-05  2.5154531630993124e-05  2.5154531899519977e-05  2.5154532238014224e-05  2.5154532658601637e-05  2.5154533184606123e-05  2.5154533860321540e-05  2.5154534761085481e-05  2.5154536000999244e-05  2.5154537736163144e-05  2.5154540162984339e-05  2.5154543513673667e-05  2.5154548053319764e-05  2.5154554083554358e-05  2.5154561956542406e-05  2.5154572100885102e-05  2.5154585059451308e-05  2.5154601538982305e-05  2.5154622472461776e-05  2.5154649097320913e-05  2.5154683055391508e-05  2.5154726524097743e-05  2.5154782392642715e-05  2.5154854501795497e-05  2.5154947971442789e-05  2.5155069647293980e-05  2.5155228708614966e-05  2.5155437493915233e-05  2.5155712621113458e-05  2.5156076494977657e-05  2.5156559279933856e-05  2.5157201318172578e-05  2.5158055706297084e-05  2.5159190178957266e-05  2.5160686504354113e-05  2.5162634541869435e-05  2.5165117748253368e-05  2.5168188353210850e-05  2.5171834312427027e-05  2.5175945877113120e-05  2.5180296461696419e-05  2.5184558165662908e-05  2.5188366771775796e-05  2.5191421544290363e-05  2.5193569325581166e-05  2.5194825849386323e-05  2.5195330989931100e-05  2.5195273789102662e-05  2.5194826177944339e-05  2.5194105235283449e-05  2.5193160761756081e-05  2.5191976531791367e-05  2.5190483532345891e-05  2.5188587203526089e-05  2.5186203433340038e-05  2.5183295745629442e-05  2.5179905317920298e-05  2.5176169562850676e-05  2.5172326683265904e-05  2.5168696440508874e-05  2.5165620549428270e-05  2.5163360469940392e-05  2.5161991534340214e-05  2.5161330831318305e-05  2.5160940269204683e-05  2.5160358673521184e-05  2.5159434049567394e-05  2.5158327273846165e-05  2.5157267170893993e-05  2.5156392537193398e-05  2.5155741030644675e-05  2.5155289516821411e-05  2.5154992613054025e-05  2.5154804974098002e-05  2.5154690063314755e-05  2.5154621519865173e-05  2.5154581569449096e-05  2.5154558774519700e-05  2.5154546035715595e-05  2.5154539083574618e-05  2.5154535437168707e-05  2.5154533733730759e-05  5.0322593807212708e-05  5.0322589554651717e-05  2.5154530962285386e-05  2.5154530962319112e-05  2.5154530962392824e-05  2.5154530962542850e-05  2.5154530962840579e-05  2.5154530963422369e-05  2.5154530964543712e-05  2.5154530966673207e-05  2.5154530970651646e-05  2.5154530977949628e-05  2.5154530991064083e-05  2.5154531014090626e-05  2.5154531053478200e-05  2.5154531118898471e-05  2.5154531224025587e-05  2.5154531386842105e-05  2.5154531628949796e-05  2.5154531973484872e-05  2.5154532441916616e-05  2.5154533051396463e-05  2.5154533815969926e-05  2.5154534755455686e-05  2.5154535913633630e-05  2.5154537383230590e-05  2.5154539331743325e-05  2.5154542020868696e-05  2.5154545813519202e-05  2.5154551166800117e-05  2.5154558616529841e-05  2.5154568765376983e-05  2.5154582288090138e-05  2.5154599962996788e-05  2.5154622732434328e-05  2.5154651790434820e-05  2.5154688695857135e-05  2.5154735512323630e-05  2.5154794981366473e-05  2.5154870741797340e-05  2.5154967616618398e-05  2.5155091998681451e-05  2.5155252377216042e-05  2.5155460059058882e-05  2.5155730153547215e-05  2.5156082913453143e-05  2.5156545560769765e-05  2.5157154782986975e-05  2.5157960155924843e-05  2.5159028773205993e-05  2.5160451223500455e-05  2.5162348555958314e-05  2.5164878592665917e-05  2.5168237401861753e-05  2.5172648431453242e-05  2.5178329900717376e-05  2.5185433924120536e-05  2.5193960683092553e-05  2.5203665342061545e-05  2.5213994447948878e-05  2.5224112188958469e-05  2.5233073758688414e-05  2.5240111973608813e-05  2.5244875615390725e-05  2.5247471984002965e-05  2.5248317888854000e-05  2.5247923246753161e-05  2.5246719885991972e-05  2.5244982017689935e-05  2.5242812526857212e-05  2.5240149642131500e-05  2.5236797713817887e-05  2.5232497439038221e-05  2.5227017821698599e-05  2.5220250293995978e-05  2.5212281142396122e-05  2.5203435861152775e-05  2.5194298068238517e-05  2.5185677780577733e-05  2.5178468281767301e-05  2.5173365611195572e-05  2.5170584873733657e-05  2.5169649248693621e-05  2.5169272273512210e-05  2.5168072294970771e-05  2.5165751828234326e-05  2.5162968551072624e-05  2.5160414194074048e-05  2.5158406610801932e-05  2.5156977280719872e-05  2.5156024985546958e-05  2.5155419351773838e-05  2.5155047268443160e-05  2.5154824903026457e-05  2.5154695134334524e-05  2.5154621022969516e-05  2.5154579553274149e-05  2.5154556813097329e-05  2.5154544626592865e-05  2.5154538339080416e-05  2.5154535436224462e-05  5.0322596371455810e-05  5.0322589554696834e-05  2.5154530962313291e-05  2.5154530962370293e-05  2.5154530962496338e-05  2.5154530962756377e-05  2.5154530963280311e-05  2.5154530964320807e-05  2.5154530966360631e-05  2.5154530970304213e-05  2.5154530977810585e-05  2.5154530991849994e-05  2.5154531017590465e-05  2.5154531063727800e-05  2.5154531144320431e-05  2.5154531281026676e-05  2.5154531505298056e-05  2.5154531859551921e-05  2.5154532395809957e-05  2.5154533170298639e-05  2.5154534234027618e-05  2.5154535623203082e-05  2.5154537358605682e-05  2.5154539465429640e-05  2.5154542018965291e-05  2.5154545209005150e-05  2.5154549406535305e-05  2.5154555213281251e-05  2.5154563477135472e-05  2.5154575267650359e-05  2.5154591826388064e-05  2.5154614525960443e-05  2.5154644874508695e-05  2.5154684588063799e-05  2.5154735733562802e-05  2.5154800933651944e-05  2.5154883625590134e-05  2.5154988375609286e-05  2.5155121262201918e-05  2.5155290356978673e-05  2.5155506351038022e-05  2.5155783398072953e-05  2.5156140270413172e-05  2.5156601948075357e-05  2.5157201790844989e-05  2.5157984493370652e-05  2.5159010103548533e-05  2.5160359532330200e-05  2.5162142220634040e-05  2.5164506819879764e-05  2.5167655645386491e-05  2.5171862918733695e-05  2.5177494197125198e-05  2.5185017717271671e-05  2.5194988251478321e-05  2.5207976332176202e-05  2.5224420664900938e-05  2.5244407012337961e-05  2.5267410560510340e-05  2.5292086620889716e-05  2.5316285485402773e-05  2.5337513261891157e-05  2.5353777660748391e-05  2.5364282315871245e-05  2.5369492927734567e-05  2.5370639417778182e-05  2.5369090010041887e-05  2.5365914482199084e-05  2.5361739313483456e-05  2.5356769225141096e-05  2.5350802377246811e-05  2.5343292090653067e-05  2.5333533377248364e-05  2.5320899671362069e-05  2.5305084295607260e-05  2.5286270523502818e-05  2.5265228321675310e-05  2.5243380822424107e-05  2.5222781359321310e-05  2.5205782782589345e-05  2.5194240218155775e-05  2.5188780046908899e-05  2.5188265328908025e-05  2.5188882321631410e-05  2.5186330220825421e-05  2.5180228161878963e-05  2.5173115821917681e-05  2.5166991768193689e-05  2.5162454697894138e-05  2.5159382805065168e-05  2.5157418452781414e-05  2.5156209701055031e-05  2.5155486822649601e-05  2.5155064668013375e-05  2.5154823416744277e-05  2.5154688369707207e-05  2.5154614278333986e-05  2.5154574436721670e-05  2.5154553488807626e-05  2.5154542867801076e-05  2.5154538025951492e-05  5.0322600241116587e-05  5.0322589554766290e-05  2.5154530962356754e-05  2.5154530962451134e-05  2.5154530962662357e-05  2.5154530963104149e-05  2.5154530964007913e-05  2.5154530965832476e-05  2.5154530969472122e-05  2.5154530976639159e-05  2.5154530990547854e-05  2.5154531017095127e-05  2.5154531066810533e-05  2.5154531157901330e-05  2.5154531320657315e-05  2.5154531603149003e-05  2.5154532077329275e-05  2.5154532843176629e-05  2.5154534026664378e-05  2.5154535766445318e-05  2.5154538187128940e-05  2.5154541367370783e-05  2.51545453278