<?xml version="1.0"?>
<VTKFile type="UnstructuredGrid"  version="0.1"  >
<UnstructuredGrid>
<Piece  NumberOfPoints="5151" NumberOfCells="10000">
<Points>
<DataArray  type="Float64"  NumberOfComponents="3"  format="ascii">0 0 0  0.02 0 0  0.04 0 0  0.06 0 0  0.08 0 0  0.1 0 0  0.12 0 0  0.14 0 0  0.16 0 0  0.18 0 0  0.2 0 0  0.22 0 0  0.24 0 0  0.26 0 0  0.28 0 0  0.3 0 0  0.32 0 0  0.34 0 0  0.36 0 0  0.38 0 0  0.4 0 0  0.42 0 0  0.44 0 0  0.46 0 0  0.48 0 0  0.5 0 0  0.52 0 0  0.54 0 0  0.5600000000000001 0 0  0.58 0 0  0.6 0 0  0.62 0 0  0.64 0 0  0.66 0 0  0.68 0 0  0.7 0 0  0.72 0 0  0.74 0 0  0.76 0 0  0.78 0 0  0.8 0 0  0.82 0 0  0.84 0 0  0.86 0 0  0.88 0 0  0.9 0 0  0.92 0 0  0.9399999999999999 0 0  0.96 0 0  0.98 0 0  1 0 0  1.02 0 0  1.04 0 0  1.06 0 0  1.08 0 0  1.1 0 0  1.12 0 0  1.14 0 0  1.16 0 0  1.18 0 0  1.2 0 0  1.22 0 0  1.24 0 0  1.26 0 0  1.28 0 0  1.3 0 0  1.32 0 0  1.34 0 0  1.36 0 0  1.38 0 0  1.4 0 0  1.42 0 0  1.44 0 0  1.46 0 0  1.48 0 0  1.5 0 0  1.52 0 0  1.54 0 0  1.56 0 0  1.58 0 0  1.6 0 0  1.62 0 0  1.64 0 0  1.66 0 0  1.68 0 0  1.7 0 0  1.72 0 0  1.74 0 0  1.76 0 0  1.78 0 0  1.8 0 0  1.82 0 0  1.84 0 0  1.86 0 0  1.88 0 0  1.9 0 0  1.92 0 0  1.94 0 0  1.96 0 0  1.98 0 0  2 0 0  0 0.02 0  0.02 0.02 0  0.04 0.02 0  0.06 0.02 0  0.08 0.02 0  0.1 0.02 0  0.12 0.02 0  0.14 0.02 0  0.16 0.02 0  0.18 0.02 0  0.2 0.02 0  0.22 0.02 0  0.24 0.02 0  0.26 0.02 0  0.28 0.02 0  0.3 0.02 0  0.32 0.02 0  0.34 0.02 0  0.36 0.02 0  0.38 0.02 0  0.4 0.02 0  0.42 0.02 0  0.44 0.02 0  0.46 0.02 0  0.48 0.02 0  0.5 0.02 0  0.52 0.02 0  0.54 0.02 0  0.5600000000000001 0.02 0  0.58 0.02 0  0.6 0.02 0  0.62 0.02 0  0.64 0.02 0  0.66 0.02 0  0.68 0.02 0  0.7 0.02 0  0.72 0.02 0  0.74 0.02 0  0.76 0.02 0  0.78 0.02 0  0.8 0.02 0  0.82 0.02 0  0.84 0.02 0  0.86 0.02 0  0.88 0.02 0  0.9 0.02 0  0.92 0.02 0  0.9399999999999999 0.02 0  0.96 0.02 0  0.98 0.02 0  1 0.02 0  1.02 0.02 0  1.04 0.02 0  1.06 0.02 0  1.08 0.02 0  1.1 0.02 0  1.12 0.02 0  1.14 0.02 0  1.16 0.02 0  1.18 0.02 0  1.2 0.02 0  1.22 0.02 0  1.24 0.02 0  1.26 0.02 0  1.28 0.02 0  1.3 0.02 0  1.32 0.02 0  1.34 0.02 0  1.36 0.02 0  1.38 0.02 0  1.4 0.02 0  1.42 0.02 0  1.44 0.02 0  1.46 0.02 0  1.48 0.02 0  1.5 0.02 0  1.52 0.02 0  1.54 0.02 0  1.56 0.02 0  1.58 0.02 0  1.6 0.02 0  1.62 0.02 0  1.64 0.02 0  1.66 0.02 0  1.68 0.02 0  1.7 0.02 0  1.72 0.02 0  1.74 0.02 0  1.76 0.02 0  1.78 0.02 0  1.8 0.02 0  1.82 0.02 0  1.84 0.02 0  1.86 0.02 0  1.88 0.02 0  1.9 0.02 0  1.92 0.02 0  1.94 0.02 0  1.96 0.02 0  1.98 0.02 0  2 0.02 0  0 0.04 0  0.02 0.04 0  0.04 0.04 0  0.06 0.04 0  0.08 0.04 0  0.1 0.04 0  0.12 0.04 0  0.14 0.04 0  0.16 0.04 0  0.18 0.04 0  0.2 0.04 0  0.22 0.04 0  0.24 0.04 0  0.26 0.04 0  0.28 0.04 0  0.3 0.04 0  0.32 0.04 0  0.34 0.04 0  0.36 0.04 0  0.38 0.04 0  0.4 0.04 0  0.42 0.04 0  0.44 0.04 0  0.46 0.04 0  0.48 0.04 0  0.5 0.04 0  0.52 0.04 0  0.54 0.04 0  0.5600000000000001 0.04 0  0.58 0.04 0  0.6 0.04 0  0.62 0.04 0  0.64 0.04 0  0.66 0.04 0  0.68 0.04 0  0.7 0.04 0  0.72 0.04 0  0.74 0.04 0  0.76 0.04 0  0.78 0.04 0  0.8 0.04 0  0.82 0.04 0  0.84 0.04 0  0.86 0.04 0  0.88 0.04 0  0.9 0.04 0  0.92 0.04 0  0.9399999999999999 0.04 0  0.96 0.04 0  0.98 0.04 0  1 0.04 0  1.02 0.04 0  1.04 0.04 0  1.06 0.04 0  1.08 0.04 0  1.1 0.04 0  1.12 0.04 0  1.14 0.04 0  1.16 0.04 0  1.18 0.04 0  1.2 0.04 0  1.22 0.04 0  1.24 0.04 0  1.26 0.04 0  1.28 0.04 0  1.3 0.04 0  1.32 0.04 0  1.34 0.04 0  1.36 0.04 0  1.38 0.04 0  1.4 0.04 0  1.42 0.04 0  1.44 0.04 0  1.46 0.04 0  1.48 0.04 0  1.5 0.04 0  1.52 0.04 0  1.54 0.04 0  1.56 0.04 0  1.58 0.04 0  1.6 0.04 0  1.62 0.04 0  1.64 0.04 0  1.66 0.04 0  1.68 0.04 0  1.7 0.04 0  1.72 0.04 0  1.74 0.04 0  1.76 0.04 0  1.78 0.04 0  1.8 0.04 0  1.82 0.04 0  1.84 0.04 0  1.86 0.04 0  1.88 0.04 0  1.9 0.04 0  1.92 0.04 0  1.94 0.04 0  1.96 0.04 0  1.98 0.04 0  2 0.04 0  0 0.06 0  0.02 0.06 0  0.04 0.06 0  0.06 0.06 0  0.08 0.06 0  0.1 0.06 0  0.12 0.06 0  0.14 0.06 0  0.16 0.06 0  0.18 0.06 0  0.2 0.06 0  0.22 0.06 0  0.24 0.06 0  0.26 0.06 0  0.28 0.06 0  0.3 0.06 0  0.32 0.06 0  0.34 0.06 0  0.36 0.06 0  0.38 0.06 0  0.4 0.06 0  0.42 0.06 0  0.44 0.06 0  0.46 0.06 0  0.48 0.06 0  0.5 0.06 0  0.52 0.06 0  0.54 0.06 0  0.5600000000000001 0.06 0  0.58 0.06 0  0.6 0.06 0  0.62 0.06 0  0.64 0.06 0  0.66 0.06 0  0.68 0.06 0  0.7 0.06 0  0.72 0.06 0  0.74 0.06 0  0.76 0.06 0  0.78 0.06 0  0.8 0.06 0  0.82 0.06 0  0.84 0.06 0  0.86 0.06 0  0.88 0.06 0  0.9 0.06 0  0.92 0.06 0  0.9399999999999999 0.06 0  0.96 0.06 0  0.98 0.06 0  1 0.06 0  1.02 0.06 0  1.04 0.06 0  1.06 0.06 0  1.08 0.06 0  1.1 0.06 0  1.12 0.06 0  1.14 0.06 0  1.16 0.06 0  1.18 0.06 0  1.2 0.06 0  1.22 0.06 0  1.24 0.06 0  1.26 0.06 0  1.28 0.06 0  1.3 0.06 0  1.32 0.06 0  1.34 0.06 0  1.36 0.06 0  1.38 0.06 0  1.4 0.06 0  1.42 0.06 0  1.44 0.06 0  1.46 0.06 0  1.48 0.06 0  1.5 0.06 0  1.52 0.06 0  1.54 0.06 0  1.56 0.06 0  1.58 0.06 0  1.6 0.06 0  1.62 0.06 0  1.64 0.06 0  1.66 0.06 0  1.68 0.06 0  1.7 0.06 0  1.72 0.06 0  1.74 0.06 0  1.76 0.06 0  1.78 0.06 0  1.8 0.06 0  1.82 0.06 0  1.84 0.06 0  1.86 0.06 0  1.88 0.06 0  1.9 0.06 0  1.92 0.06 0  1.94 0.06 0  1.96 0.06 0  1.98 0.06 0  2 0.06 0  0 0.08 0  0.02 0.08 0  0.04 0.08 0  0.06 0.08 0  0.08 0.08 0  0.1 0.08 0  0.12 0.08 0  0.14 0.08 0  0.16 0.08 0  0.18 0.08 0  0.2 0.08 0  0.22 0.08 0  0.24 0.08 0  0.26 0.08 0  0.28 0.08 0  0.3 0.08 0  0.32 0.08 0  0.34 0.08 0  0.36 0.08 0  0.38 0.08 0  0.4 0.08 0  0.42 0.08 0  0.44 0.08 0  0.46 0.08 0  0.48 0.08 0  0.5 0.08 0  0.52 0.08 0  0.54 0.08 0  0.5600000000000001 0.08 0  0.58 0.08 0  0.6 0.08 0  0.62 0.08 0  0.64 0.08 0  0.66 0.08 0  0.68 0.08 0  0.7 0.08 0  0.72 0.08 0  0.74 0.08 0  0.76 0.08 0  0.78 0.08 0  0.8 0.08 0  0.82 0.08 0  0.84 0.08 0  0.86 0.08 0  0.88 0.08 0  0.9 0.08 0  0.92 0.08 0  0.9399999999999999 0.08 0  0.96 0.08 0  0.98 0.08 0  1 0.08 0  1.02 0.08 0  1.04 0.08 0  1.06 0.08 0  1.08 0.08 0  1.1 0.08 0  1.12 0.08 0  1.14 0.08 0  1.16 0.08 0  1.18 0.08 0  1.2 0.08 0  1.22 0.08 0  1.24 0.08 0  1.26 0.08 0  1.28 0.08 0  1.3 0.08 0  1.32 0.08 0  1.34 0.08 0  1.36 0.08 0  1.38 0.08 0  1.4 0.08 0  1.42 0.08 0  1.44 0.08 0  1.46 0.08 0  1.48 0.08 0  1.5 0.08 0  1.52 0.08 0  1.54 0.08 0  1.56 0.08 0  1.58 0.08 0  1.6 0.08 0  1.62 0.08 0  1.64 0.08 0  1.66 0.08 0  1.68 0.08 0  1.7 0.08 0  1.72 0.08 0  1.74 0.08 0  1.76 0.08 0  1.78 0.08 0  1.8 0.08 0  1.82 0.08 0  1.84 0.08 0  1.86 0.08 0  1.88 0.08 0  1.9 0.08 0  1.92 0.08 0  1.94 0.08 0  1.96 0.08 0  1.98 0.08 0  2 0.08 0  0 0.1 0  0.02 0.1 0  0.04 0.1 0  0.06 0.1 0  0.08 0.1 0  0.1 0.1 0  0.12 0.1 0  0.14 0.1 0  0.16 0.1 0  0.18 0.1 0  0.2 0.1 0  0.22 0.1 0  0.24 0.1 0  0.26 0.1 0  0.28 0.1 0  0.3 0.1 0  0.32 0.1 0  0.34 0.1 0  0.36 0.1 0  0.38 0.1 0  0.4 0.1 0  0.42 0.1 0  0.44 0.1 0  0.46 0.1 0  0.48 0.1 0  0.5 0.1 0  0.52 0.1 0  0.54 0.1 0  0.5600000000000001 0.1 0  0.58 0.1 0  0.6 0.1 0  0.62 0.1 0  0.64 0.1 0  0.66 0.1 0  0.68 0.1 0  0.7 0.1 0  0.72 0.1 0  0.74 0.1 0  0.76 0.1 0  0.78 0.1 0  0.8 0.1 0  0.82 0.1 0  0.84 0.1 0  0.86 0.1 0  0.88 0.1 0  0.9 0.1 0  0.92 0.1 0  0.9399999999999999 0.1 0  0.96 0.1 0  0.98 0.1 0  1 0.1 0  1.02 0.1 0  1.04 0.1 0  1.06 0.1 0  1.08 0.1 0  1.1 0.1 0  1.12 0.1 0  1.14 0.1 0  1.16 0.1 0  1.18 0.1 0  1.2 0.1 0  1.22 0.1 0  1.24 0.1 0  1.26 0.1 0  1.28 0.1 0  1.3 0.1 0  1.32 0.1 0  1.34 0.1 0  1.36 0.1 0  1.38 0.1 0  1.4 0.1 0  1.42 0.1 0  1.44 0.1 0  1.46 0.1 0  1.48 0.1 0  1.5 0.1 0  1.52 0.1 0  1.54 0.1 0  1.56 0.1 0  1.58 0.1 0  1.6 0.1 0  1.62 0.1 0  1.64 0.1 0  1.66 0.1 0  1.68 0.1 0  1.7 0.1 0  1.72 0.1 0  1.74 0.1 0  1.76 0.1 0  1.78 0.1 0  1.8 0.1 0  1.82 0.1 0  1.84 0.1 0  1.86 0.1 0  1.88 0.1 0  1.9 0.1 0  1.92 0.1 0  1.94 0.1 0  1.96 0.1 0  1.98 0.1 0  2 0.1 0  0 0.12 0  0.02 0.12 0  0.04 0.12 0  0.06 0.12 0  0.08 0.12 0  0.1 0.12 0  0.12 0.12 0  0.14 0.12 0  0.16 0.12 0  0.18 0.12 0  0.2 0.12 0  0.22 0.12 0  0.24 0.12 0  0.26 0.12 0  0.28 0.12 0  0.3 0.12 0  0.32 0.12 0  0.34 0.12 0  0.36 0.12 0  0.38 0.12 0  0.4 0.12 0  0.42 0.12 0  0.44 0.12 0  0.46 0.12 0  0.48 0.12 0  0.5 0.12 0  0.52 0.12 0  0.54 0.12 0  0.5600000000000001 0.12 0  0.58 0.12 0  0.6 0.12 0  0.62 0.12 0  0.64 0.12 0  0.66 0.12 0  0.68 0.12 0  0.7 0.12 0  0.72 0.12 0  0.74 0.12 0  0.76 0.12 0  0.78 0.12 0  0.8 0.12 0  0.82 0.12 0  0.84 0.12 0  0.86 0.12 0  0.88 0.12 0  0.9 0.12 0  0.92 0.12 0  0.9399999999999999 0.12 0  0.96 0.12 0  0.98 0.12 0  1 0.12 0  1.02 0.12 0  1.04 0.12 0  1.06 0.12 0  1.08 0.12 0  1.1 0.12 0  1.12 0.12 0  1.14 0.12 0  1.16 0.12 0  1.18 0.12 0  1.2 0.12 0  1.22 0.12 0  1.24 0.12 0  1.26 0.12 0  1.28 0.12 0  1.3 0.12 0  1.32 0.12 0  1.34 0.12 0  1.36 0.12 0  1.38 0.12 0  1.4 0.12 0  1.42 0.12 0  1.44 0.12 0  1.46 0.12 0  1.48 0.12 0  1.5 0.12 0  1.52 0.12 0  1.54 0.12 0  1.56 0.12 0  1.58 0.12 0  1.6 0.12 0  1.62 0.12 0  1.64 0.12 0  1.66 0.12 0  1.68 0.12 0  1.7 0.12 0  1.72 0.12 0  1.74 0.12 0  1.76 0.12 0  1.78 0.12 0  1.8 0.12 0  1.82 0.12 0  1.84 0.12 0  1.86 0.12 0  1.88 0.12 0  1.9 0.12 0  1.92 0.12 0  1.94 0.12 0  1.96 0.12 0  1.98 0.12 0  2 0.12 0  0 0.14 0  0.02 0.14 0  0.04 0.14 0  0.06 0.14 0  0.08 0.14 0  0.1 0.14 0  0.12 0.14 0  0.14 0.14 0  0.16 0.14 0  0.18 0.14 0  0.2 0.14 0  0.22 0.14 0  0.24 0.14 0  0.26 0.14 0  0.28 0.14 0  0.3 0.14 0  0.32 0.14 0  0.34 0.14 0  0.36 0.14 0  0.38 0.14 0  0.4 0.14 0  0.42 0.14 0  0.44 0.14 0  0.46 0.14 0  0.48 0.14 0  0.5 0.14 0  0.52 0.14 0  0.54 0.14 0  0.5600000000000001 0.14 0  0.58 0.14 0  0.6 0.14 0  0.62 0.14 0  0.64 0.14 0  0.66 0.14 0  0.68 0.14 0  0.7 0.14 0  0.72 0.14 0  0.74 0.14 0  0.76 0.14 0  0.78 0.14 0  0.8 0.14 0  0.82 0.14 0  0.84 0.14 0  0.86 0.14 0  0.88 0.14 0  0.9 0.14 0  0.92 0.14 0  0.9399999999999999 0.14 0  0.96 0.14 0  0.98 0.14 0  1 0.14 0  1.02 0.14 0  1.04 0.14 0  1.06 0.14 0  1.08 0.14 0  1.1 0.14 0  1.12 0.14 0  1.14 0.14 0  1.16 0.14 0  1.18 0.14 0  1.2 0.14 0  1.22 0.14 0  1.24 0.14 0  1.26 0.14 0  1.28 0.14 0  1.3 0.14 0  1.32 0.14 0  1.34 0.14 0  1.36 0.14 0  1.38 0.14 0  1.4 0.14 0  1.42 0.14 0  1.44 0.14 0  1.46 0.14 0  1.48 0.14 0  1
[...]
<PointData  Scalars="sols[i]"> 
<DataArray  type="Float64"  Name="sols[i]"  format="ascii">7.6476039982276568e-05  5.0981516927450116e-05  5.0981516927450279e-05  5.0981516927450638e-05  5.0981516927451451e-05  5.0981516927453281e-05  5.0981516927457143e-05  5.0981516927465661e-05  5.0981516927484086e-05  5.0981516927523876e-05  5.0981516927609935e-05  5.0981516927795381e-05  5.0981516928194225e-05  5.0981516929050555e-05  5.0981516930885418e-05  5.0981516934808522e-05  5.0981516943179979e-05  5.0981516961006546e-05  5.0981516998884152e-05  5.0981517079179393e-05  5.0981517248955519e-05  5.0981517606864127e-05  5.0981518358700763e-05  5.0981519931105594e-05  5.0981523201363546e-05  5.0981529954024002e-05  5.0981543767433525e-05  5.0981571680852239e-05  5.0981627191718075e-05  5.0981735302628036e-05  5.0981940195537830e-05  5.0982314966503027e-05  5.0982969494420861e-05  5.0984045853868566e-05  5.0985682398819134e-05  5.0987922228308942e-05  5.0990572089710814e-05  5.0993146902541067e-05  5.0995030084776279e-05  5.0995743699073538e-05  5.0995172009480914e-05  5.0993573078029968e-05  5.0991394001366235e-05  5.0989091671833762e-05  5.0987005586932926e-05  5.0985311594023716e-05  5.0984045241266210e-05  5.0983156397483773e-05  5.0982561127428926e-05  5.0982175453186790e-05  5.0981930809151272e-05  5.0981777356343160e-05  5.0981681470501128e-05  5.0981621556013796e-05  5.0981584201779826e-05  5.0981561338304905e-05  5.0981548421764997e-05  5.0981543489885656e-05  5.0981546982919169e-05  5.0981562380802197e-05  5.0981597936665057e-05  5.0981670094878517e-05  5.0981809589717950e-05  5.0982071730167061e-05  5.0982552931027971e-05  5.0983415991170177e-05  5.0984926633440604e-05  5.0987502810872784e-05  5.0991774770726105e-05  5.0998643262460674e-05  5.1009292351296674e-05  5.1025034513659610e-05  5.1046722018973457e-05  5.1073390219031354e-05  5.1100369747377235e-05  5.1119150592372254e-05  5.1122022452890902e-05  5.1108014371718319e-05  5.1083050262731455e-05  5.1055389160921409e-05  5.1031126343274974e-05  5.1012778390554234e-05  5.1000253766747043e-05  5.0992311355386164e-05  5.0987542169549319e-05  5.0984794832522213e-05  5.0983262684256613e-05  5.0982430159614303e-05  5.0981987361730033e-05  5.0981756046361169e-05  5.0981637054263514e-05  5.0981576655104640e-05  5.0981546353734530e-05  5.0981531307996993e-05  5.0981523905292167e-05  5.0981520292982707e-05  5.0981518544311797e-05  5.0981517706494101e-05  5.0981517314906751e-05  5.0981517150097992e-05  1.5295510205622504e-04  5.0981516927450069e-05  2.5486182348298976e-05  2.5486182348299047e-05  2.5486182348299227e-05  2.5486182348299620e-05  2.5486182348300494e-05  2.5486182348302381e-05  2.5486182348306505e-05  2.5486182348315473e-05  2.5486182348334870e-05  2.5486182348376886e-05  2.5486182348467658e-05  2.5486182348663268e-05  2.5486182349084101e-05  2.5486182349987689e-05  2.5486182351923745e-05  2.5486182356063856e-05  2.5486182364899748e-05  2.5486182383719522e-05  2.5486182423722408e-05  2.5486182508569340e-05  2.5486182688110129e-05  2.5486183067014350e-05  2.5486183864101664e-05  2.5486185534207890e-05  2.5486189015445812e-05  2.5486196222322231e-05  2.5486211005511295e-05  2.5486240955644116e-05  2.5486300622437476e-05  2.5486416816214711e-05  2.5486636219810219e-05  2.5487033572663430e-05  2.5487713812951701e-05  2.5488794418219085e-05  2.5490342238068412e-05  2.5492246928359219e-05  2.5494150206592556e-05  2.5495572576519725e-05  2.5496130974167033e-05  2.5495730789241572e-05  2.5494577241892283e-05  2.5493009833033870e-05  2.5491369036870358e-05  2.5489901044587249e-05  2.5488726057069983e-05  2.5487860649651730e-05  2.5487261754967743e-05  2.5486865642041063e-05  2.5486611586265307e-05  2.5486451611490256e-05  2.5486351715618570e-05  2.5486289407265052e-05  2.5486250449657554e-05  2.5486226079064980e-05  2.5486211026912680e-05  2.5486202280234334e-05  2.5486198427176138e-05  2.5486199486136119e-05  2.5486207228524657e-05  2.5486226155623911e-05  2.5486265491032089e-05  2.5486342823579935e-05  2.5486490393246315e-05  2.5486765430383857e-05  2.5487266348157260e-05  2.5488156786649646e-05  2.5489699300679429e-05  2.5492299502654976e-05  2.5496558042986256e-05  2.5503314066666211e-05  2.5513613502716231e-05  2.5528399523353040e-05  2.5547533521876714e-05  2.5567967066346257e-05  2.5582916190767472e-05  2.5585699831050393e-05  2.5575388409262423e-05  2.5556850554833627e-05  2.5536686072063585e-05  2.5519454470258523e-05  2.5506769913912005e-05  2.5498322283931952e-05  2.5493078326485121e-05  2.5489985409329865e-05  2.5488230072759537e-05  2.5487263254046087e-05  2.5486743401067189e-05  2.5486469381870055e-05  2.5486327352384199e-05  2.5486254793425477e-05  2.5486218189433805e-05  2.5486199926999031e-05  2.5486190904069377e-05  2.5486186484520283e-05  2.5486184336515317e-05  2.5486183300237476e-05  2.5486182804817158e-05  2.5486182572665827e-05  2.5486182472021427e-05  5.0981517118153269e-05  5.0981516927450096e-05  2.5486182348298986e-05  2.5486182348299085e-05  2.5486182348299288e-05  2.5486182348299756e-05  2.5486182348300806e-05  2.5486182348303076e-05  2.5486182348308053e-05  2.5486182348318932e-05  2.5486182348342575e-05  2.5486182348394007e-05  2.5486182348505605e-05  2.5486182348747152e-05  2.5486182349269073e-05  2.5486182350394536e-05  2.5486182352816308e-05  2.5486182358017365e-05  2.5486182369166216e-05  2.5486182393021333e-05  2.5486182443978883e-05  2.5486182552664791e-05  2.5486182784157262e-05  2.5486183276591982e-05  2.5486184322807593e-05  2.5486186542527796e-05  2.5486191243713858e-05  2.5486201174720409e-05  2.5486222068897355e-05  2.5486265747910507e-05  2.5486356140525117e-05  2.5486540298034865e-05  2.5486906623607646e-05  2.5487609594612356e-05  2.5488889062429021e-05  2.5491057058873831e-05  2.5494368739425309e-05  2.5498626761246309e-05  2.5502922293046393e-05  2.5506043068095947e-05  2.5507054273546006e-05  2.5505829691363767e-05  2.5503015339726410e-05  2.5499456246447728e-05  2.5495927578470236e-05  2.5492928660478502e-05  2.5490645738553918e-05  2.5489042566757105e-05  2.5487979913633335e-05  2.5487302221896667e-05  2.5486879612430161e-05  2.5486618478504704e-05  2.5486457023959109e-05  2.5486356559757302e-05  2.5486293555027379e-05  2.5486253879414703e-05  2.5486229118358258e-05  2.5486214424609361e-05  2.5486207433513091e-05  2.5486207984140669e-05  2.5486218640830375e-05  2.5486246302078579e-05  2.5486305569427129e-05  2.5486425097671866e-05  2.5486658911179999e-05  2.5487105627971188e-05  2.5487939517741557e-05  2.5489458025580407e-05  2.5492150702450230e-05  2.5496795357385460e-05  2.5504590781873131e-05  2.5517335155160132e-05  2.5537590229094816e-05  2.5568396210800388e-05  2.5611162505132387e-05  2.5659674282339842e-05  2.5695233534583731e-05  2.5698796719383257e-05  2.5670003447910817e-05  2.5624260357365279e-05  2.5579003584846775e-05  2.5543713194787145e-05  2.5519839444976534e-05  2.5505074450583184e-05  2.5496467174060899e-05  2.5491650692112649e-05  2.5489034911126256e-05  2.5487646814651903e-05  2.5486923934149030e-05  2.5486553403042873e-05  2.5486366059335574e-05  2.5486272462762441e-05  2.5486226190832977e-05  2.5486203525558636e-05  2.5486192513321222e-05  2.5486187200962054e-05  2.5486184654486667e-05  2.5486183441218653e-05  2.5486182867633711e-05  2.5486182601476599e-05  2.5486182487033083e-05  5.0981517137186079e-05  5.0981516927450123e-05  2.5486182348299010e-05  2.5486182348299119e-05  2.5486182348299386e-05  2.5486182348299972e-05  2.5486182348301294e-05  2.5486182348304174e-05  2.5486182348310516e-05  2.5486182348324472e-05  2.5486182348354979e-05  2.5486182348421728e-05  2.5486182348567394e-05  2.5486182348884534e-05  2.5486182349573693e-05  2.5486182351068039e-05  2.5486182354301113e-05  2.5486182361281267e-05  2.5486182376320947e-05  2.5486182408664924e-05  2.5486182478108991e-05  2.5486182627012037e-05  2.5486182946003202e-05  2.5486183629098915e-05  2.5486185092159745e-05  2.5486188228168650e-05  2.5486194958647113e-05  2.5486209425740404e-05  2.5486240563211393e-05  2.5486307595721836e-05  2.5486451586918958e-05  2.5486758829184960e-05  2.5487405019349590e-05  2.5488727025349361e-05  2.5491299968705640e-05  2.5495990394629059e-05  2.5503762231717817e-05  2.5514342730273330e-05  2.5525190652528023e-05  2.5532955421119223e-05  2.5535031746176839e-05  2.5531287577863209e-05  2.5523863417465934e-05  2.5514989158974100e-05  2.5506608398858134e-05  2.5499829311420068e-05  2.5494918257960382e-05  2.5491628334661313e-05  2.5489536995546574e-05  2.5488247678672165e-05  2.5487462693475421e-05  2.5486984141404756e-05  2.5486689476836924e-05  2.5486505616719537e-05  2.5486389533726103e-05  2.5486315798100187e-05  2.5486269262486012e-05  2.5486241043804233e-05  2.5486226555462172e-05  2.5486224981310525e-05  2.5486240153192444e-05  2.5486283390594506e-05  2.5486379654758382e-05  2.5486579562431642e-05  2.5486981575698746e-05  2.5487771055675873e-05  2.5489285449780298e-05  2.5492116695582538e-05  2.5497262254098094e-05  2.5506338973865859e-05  2.5521898269138327e-05  2.5547964362289058e-05  2.5590985659007318e-05  2.5660614317268535e-05  2.5766195543736243e-05  2.5896650031905951e-05  2.5994583912482055e-05  2.5997508992163584e-05  2.5910734305969133e-05  2.5786330236584152e-05  2.5674544627436362e-05  2.5595496449696905e-05  2.5546549596281119e-05  2.5518451564647791e-05  2.5503039568497990e-05  2.5494833472434052e-05  2.5490557123122573e-05  2.5488366496691594e-05  2.5487260541040167e-05  2.5486709282522451e-05  2.5486437604663077e-05  2.5486305046709107e-05  2.5486240934114334e-05  2.5486210161461801e-05  2.5486195488135722e-05  2.5486188530797608e-05  2.5486185248041051e-05  2.5486183706218646e-05  2.5486182986591238e-05  2.5486182656357724e-05  2.5486182515668523e-05  5.0981517177523916e-05  5.0981516927450164e-05  2.5486182348299037e-05  2.5486182348299180e-05  2.5486182348299518e-05  2.5486182348300277e-05  2.5486182348301985e-05  2.5486182348305746e-05  2.5486182348314081e-05  2.5486182348332519e-05  2.5486182348373105e-05  2.5486182348462481e-05  2.5486182348658799e-05  2.5486182349089001e-05  2.5486182350029787e-05  2.5486182352082357e-05  2.5486182356549667e-05  2.5486182366249170e-05  2.5486182387258812e-05  2.5486182432662174e-05  2.5486182530576394e-05  2.5486182741357622e-05  2.5486183194522668e-05  2.5486184168201170e-05  2.5486186260884174e-05  2.5486190765072107e-05  2.5486200486784915e-05  2.5486221559628465e-05  2.5486267497412472e-05  2.5486368312302487e-05  2.5486591066674574e-05  2.5487085770675059e-05  2.5488184383637912e-05  2.5490588486089010e-05  2.5495552506578763e-05  2.5505076531306202e-05  2.5522158002127594e-05  2.5547139922140637e-05  2.5574173534103614e-05  2.5595153805684055e-05  2.5601373691813971e-05  2.5591305380075319e-05  2.5572031654131053e-05  2.5549694527802087e-05  2.5529549246200461e-05  2.5514089879658641e-05  2.5503470590690110e-05  2.5496697319330501e-05  2.5492564316759248e-05  2.5490090784361990e-05  2.5488610065009649e-05  2.5487711857863636e-05  2.5487156624409807e-05  2.5486807148734534e-05  2.5486584304042257e-05  2.5486441433507362e-05  2.5486350388310027e-05  2.5486294214680315e-05  2.5486263624303122e-05  2.5486255982331326e-05  2.5486276741645319e-05  2.5486344423294484e-05  2.5486501853027796e-05  2.5486838949028344e-05  2.5487536483560276e-05  2.5488946208019384e-05  2.5491729725028820e-05  2.5497083206948273e-05  2.5507071733206138e-05  2.5525088116641930e-05  2.5556494773340602e-05  2.5609852787533601e-05  2.5700121002803942e-05  2.5854288611981733e-05  2.6109148657868130e-05  2.6454364647979361e-05  2.6723836502371624e-05  2.6719291036501776e-05  2.6472532002755888e-05  2.6139893757885499e-05  2.5865395421566466e-05  2.5691041738524795e-05  2.5593068741939865e-05  2.5540866671731718e-05  2.5513767459281599e-05  2.5499928048694291e-05  2.5492954020164821e-05  2.5489482903569450e-05  2.5487775439826484e-05  2.5486944645975666e-05  2.5486544371206044e-05  2.5486353179832090e-05  2.5486262531849836e-05  2.5486219820660555e-05  2.5486199799420132e-05  2.5486190453521050e-05  2.5486186105814027e-05  2.5486184089659003e-05  2.5486183159188032e-05  2.5486182736293412e-05  2.5486182557505557e-05  5.0981517237941570e-05  5.0981516927450245e-05  2.5486182348299088e-05  2.5486182348299268e-05  2.5486182348299708e-05  2.5486182348300697e-05  2.5486182348302930e-05  2.5486182348307887e-05  2.5486182348318946e-05  2.5486182348343564e-05  2.5486182348398144e-05  2.5486182348519137e-05  2.5486182348786725e-05  2.5486182349377165e-05  2.5486182350677170e-05  2.5486182353532505e-05  2.5486182359787413e-05  2.5486182373452216e-05  2.5486182403220759e-05  2.5486182467883589e-05  2.5486182607941046e-05  2.5486182910471911e-05  2.5486183562358862e-05  2.5486184964332939e-05  2.5486187976168251e-05  2.5486194447268481e-05  2.5486208376608286e-05  2.5486238485526289e-05  2.5486304033034832e-05  2.5486448262254023e-05  2.5486770270955587e-05  2.5487502288198557e-05  2.5489197268907589e-05  2.5493124751109997e-05  2.5501449400962605e-05  2.5516714014463268e-05  3.8368992820481686e-05  5.1409125368715851e-05  5.1618356448087686e-05  5.1821108822510943e-05  3.8770416724539252e-05  2.5714646262331361e-05  2.5677127760003672e-05  2.5624694959018410e-05  2.5577075063354935e-05  2.5542337220184259e-05  2.5519840834150269e-05  2.5506232090791446e-05  2.5498255669123045e-05  2.5493594964599517e-05  2.5490826019347375e-05  2.5489137609472895e-05  2.5488081161485610e-05  2.5487407168645007e-05  2.5486972459859681e-05  2.5486691400956788e-05  2.5486510998512018e-05  2.5486398272756950e-05  2.5486334102685340e-05  2.5486311238201159e-05  2.5486336441802043e-05  2.5486438876055208e-05  2.5486689991520726e-05  2.5487245618049379e-05  2.5488430406420022e-05  2.5490899792754785e-05  2.5495934593510437e-05  2.5505939529204158e-05  2.5525203261079568e-05  2.5560892435035111e-05  2.5624129034241128e-05  2.5731594485193021e-05  2.5911819331480042e-05  2.6219343789178760e-05  2.6716546816302829e-05  4.2861388103775248e-05  6.2637577668401317e-05  6.2362518350083204e-05  5.9659433382283090e-05  4.1203405647304712e-05  2.6196900379941043e-05  2.5848112909987641e-05  2.5666114433602810e-05  2.5575118507959364e-05  2.5529862812906949e-05  2.5507445928822661e-05  2.5496430222595469e-05  2.5491072937530842e-05  2.5488495653781626e-05  2.5487268293207253e-05  2.5486688959012554e-05  2.5486417523240211e-05  2.5486291105397643e-05  2.5486232502318884e-05  2.5486205431751986e-05  2.5486192959316104e-05  2.5486187223563577e-05  2.5486184590254191e-05  2.5486183385340448e-05  2.5486182841578662e-05  2.5486182612910223e-05  5.0981517318858424e-05  5.0981516927450286e-05  2.5486182348299125e-05  2.5486182348299363e-05  2.5486182348299932e-05  2.5486182348301212e-05  2.5486182348304133e-05  2.5486182348310645e-05  2.5486182348325278e-05  2.5486182348358048e-05  2.5486182348431242e-05  2.5486182348594611e-05  2.5486182348958490e-05  2.5486182349767271e-05  2.5486182351561049e-05  2.5486182355529788e-05  2.5486182364286987e-05  2.5486182383554263e-05  2.5486182425812398e-05  2.5486182518181700e-05  2.5486182719359221e-05  2.5486183155865819e-05  2.5486184099325438e-05  2.5486186130750006e-05  2.5486190489323408e-05  2.5486199813817164e-05  2.5486219726790012e-05  2.5486262256221662e-05  2.5486353362817203e-05  2.5486549969619175e-05  2.5486979932534409e-05  2.5487940030693757e-05  2.5490148039068639e-05  2.5495208451083982e-05  3.8279832434086388e-05  5.1135734930659560e-05  7.6988558763416127e-05  9.9329504991701723e-01  9.9570005778514192e-01  9.9672603890219014e-01  9.9776704504806468e-01  7.9936503258062951e-05  3.9059778028390791e-05  2.5769960914216507e-05  2.5670966386933357e-05  2.5596057009241054e-05  2.5550051532444806e-05  2.5523713923369525e-05  2.5508830881920131e-05  2.5500251633688018e-05  2.5495124292960756e-05  2.5491944213907213e-05  2.5489915747575788e-05  2.5488600943842401e-05  2.5487743927446573e-05  2.5487186504876100e-05  2.5486827277863038e-05  2.5486600980164938e-05  2.5486467883202871e-05  2.5486409695435204e-05  2.5486432189157949e-05  2.5486578435863209e-05  2.5486962328830229e-05  2.5487843041901406e-05  2.5489781853220376e-05  2.5493959700596016e-05  2.5502791565235560e-05  2.5521040345857004e-05  2.5557635315598164e-05  2.5628099842528057e-05  2.5756158139993717e-05  2.5970931759009985e-05  2.6306288568410847e-05  2.6803575903645760e-05  4.3141649047896448e-05  1.0400735411975345e-04  9.9975224742821833e-01  9.9975597515556092e-01  9.9968933856084419e-01  9.9956820082996167e-01  5.5378887961624088e-05  2.6049548695038462e-05  2.5768727986107294e-05  2.5624081418411540e-05  2.5552772763016305e-05  2.5517984831576227e-05  2.5501201503305265e-05  2.5493205564164098e-05  2.5489440299074333e-05  2.5487684422017943e-05  2.5486871809414217e-05  2.5486497861975729e-05  2.5486326466425270e-05  2.5486248115303849e-05  2.5486212353363731e-05  2.5486196042040541e-05  2.5486188603443430e-05  2.5486185211565627e-05  2.5486183667958487e-05  2.5486182974233299e-05  2.5486182683325566e-05  5.0981517422466254e-05  5.0981516927450408e-05  2.5486182348299193e-05  2.5486182348299491e-05  2.5486182348300210e-05  2.5486182348301866e-05  2.5486182348305631e-05  2.5486182348314101e-05  2.5486182348333244e-05  2.5486182348376375e-05  2.5486182348473401e-05  2.5486182348691478e-05  2.5486182349180765e-05  2.5486182350276534e-05  2.5486182352725767e-05  2.5486182358187991e-05  2.5486182370338923e-05  2.5486182397293171e-05  2.5486182456896786e-05  2.5486182588230654e-05  2.5486182876472754e-05  2.5486183506292525e-05  2.5486184875735444e-05  2.5486187837354957e-05  2.5486194204929529e-05  2.5486207810505542e-05  2.5486236695247427e-05  2.5486297628813254e-05  2.5486425411555229e-05  2.5486691991328821e-05  2.5487244210053552e-05  2.5488370046788243e-05  2.5490645698991137e-05  3.8254874892549822e-05  7.6623474399276483e-05  9.8513791897126002e-01  9.8227039483713829e-01  4.9999989818342022e-01  4.9999989968486075e-01  4.9999989939738770e-01  4.9999990036216102e-01  9.9750696976087960e-01  9.9845521068949949e-01  5.2903092407105668e-05  2.5829485253967813e-05  2.5691912188605347e-05  2.5603704015038875e-05  2.5555270864746575e-05  2.5528549013144114e-05  2.5513060101114777e-05  2.5503576790460777e-05  2.5497526564477896e-05  2.5493578106816027e-05  2.5490981342231972e-05  2.5489276491226384e-05  2.5488165071113642e-05  2.5487448484770472e-05  2.5486995301763515e-05  2.5486722577954772e-05  2.5486586830727803e-05  2.5486585700351479e-05  2.5486776911189204e-05  2.5487331142954923e-05  2.5488656083596750e-05  2.5491671693501042e-05  2.5498401949796467e-05  2.5513206722269366e-05  2.5545233271718707e-05  2.5612942431001065e-05  2.5751214636945137e-05  2.6014898465835576e-05  2.6448444598256019e-05  2.7013396909922542e-05  4.3451907862185258e-05  1.0320806508355457e-04  9.9970096651504103e-01  4.9999989853057275e-01  4.9999989644495901e-01  4.9999989578712228e-01  4.9999989545040335e-01  9.9909782524026269e-01  5.3782346644416873e-05  2.5891094338802876e-05  2.5692236999922072e-05  2.5584589187221063e-05  2.5532185805643927e-05  2.5507413689363803e-05  2.5495895298231160e-05  2.5490600417487025e-05  2.5488185138186249e-05  2.5487088752225250e-05  2.5486592411603957e-05  2.5486367966897813e-05  2.5486266469752228e-05  2.5486220532589375e-05  2.5486199713174508e-05  2.5486190262266614e-05  2.5486185966277736e-05  2.5486184015018443e-05  2.5486183138992865e-05  2.5486182771784164e-05  5.0981517553377412e-05  5.0981516927450530e-05  2.5486182348299281e-05  2.5486182348299654e-05  2.5486182348300569e-05  2.5486182348302659e-05  2.5486182348307436e-05  2.5486182348318265e-05  2.5486182348342866e-05  2.5486182348398682e-05  2.5486182348525053e-05  2.5486182348811065e-05  2.5486182349457501e-05  2.5486182350916342e-05  2.5486182354203480e-05  2.5486182361596499e-05  2.5486182378188468e-05  2.5486182415334716e-05  2.5486182498264445e-05  2.5486182682804512e-05  2.5486183091906633e-05  2.5486183994864923e-05  2.54861859776