<?xml version="1.0"?>
<VTKFile type="UnstructuredGrid"  version="0.1"  >
<UnstructuredGrid>
<Piece  NumberOfPoints="5151" NumberOfCells="10000">
<Points>
<DataArray  type="Float64"  NumberOfComponents="3"  format="ascii">0 0 0  0.02 0 0  0.04 0 0  0.06 0 0  0.08 0 0  0.1 0 0  0.12 0 0  0.14 0 0  0.16 0 0  0.18 0 0  0.2 0 0  0.22 0 0  0.24 0 0  0.26 0 0  0.28 0 0  0.3 0 0  0.32 0 0  0.34 0 0  0.36 0 0  0.38 0 0  0.4 0 0  0.42 0 0  0.44 0 0  0.46 0 0  0.48 0 0  0.5 0 0  0.52 0 0  0.54 0 0  0.5600000000000001 0 0  0.58 0 0  0.6 0 0  0.62 0 0  0.64 0 0  0.66 0 0  0.68 0 0  0.7 0 0  0.72 0 0  0.74 0 0  0.76 0 0  0.78 0 0  0.8 0 0  0.82 0 0  0.84 0 0  0.86 0 0  0.88 0 0  0.9 0 0  0.92 0 0  0.9399999999999999 0 0  0.96 0 0  0.98 0 0  1 0 0  1.02 0 0  1.04 0 0  1.06 0 0  1.08 0 0  1.1 0 0  1.12 0 0  1.14 0 0  1.16 0 0  1.18 0 0  1.2 0 0  1.22 0 0  1.24 0 0  1.26 0 0  1.28 0 0  1.3 0 0  1.32 0 0  1.34 0 0  1.36 0 0  1.38 0 0  1.4 0 0  1.42 0 0  1.44 0 0  1.46 0 0  1.48 0 0  1.5 0 0  1.52 0 0  1.54 0 0  1.56 0 0  1.58 0 0  1.6 0 0  1.62 0 0  1.64 0 0  1.66 0 0  1.68 0 0  1.7 0 0  1.72 0 0  1.74 0 0  1.76 0 0  1.78 0 0  1.8 0 0  1.82 0 0  1.84 0 0  1.86 0 0  1.88 0 0  1.9 0 0  1.92 0 0  1.94 0 0  1.96 0 0  1.98 0 0  2 0 0  0 0.02 0  0.02 0.02 0  0.04 0.02 0  0.06 0.02 0  0.08 0.02 0  0.1 0.02 0  0.12 0.02 0  0.14 0.02 0  0.16 0.02 0  0.18 0.02 0  0.2 0.02 0  0.22 0.02 0  0.24 0.02 0  0.26 0.02 0  0.28 0.02 0  0.3 0.02 0  0.32 0.02 0  0.34 0.02 0  0.36 0.02 0  0.38 0.02 0  0.4 0.02 0  0.42 0.02 0  0.44 0.02 0  0.46 0.02 0  0.48 0.02 0  0.5 0.02 0  0.52 0.02 0  0.54 0.02 0  0.5600000000000001 0.02 0  0.58 0.02 0  0.6 0.02 0  0.62 0.02 0  0.64 0.02 0  0.66 0.02 0  0.68 0.02 0  0.7 0.02 0  0.72 0.02 0  0.74 0.02 0  0.76 0.02 0  0.78 0.02 0  0.8 0.02 0  0.82 0.02 0  0.84 0.02 0  0.86 0.02 0  0.88 0.02 0  0.9 0.02 0  0.92 0.02 0  0.9399999999999999 0.02 0  0.96 0.02 0  0.98 0.02 0  1 0.02 0  1.02 0.02 0  1.04 0.02 0  1.06 0.02 0  1.08 0.02 0  1.1 0.02 0  1.12 0.02 0  1.14 0.02 0  1.16 0.02 0  1.18 0.02 0  1.2 0.02 0  1.22 0.02 0  1.24 0.02 0  1.26 0.02 0  1.28 0.02 0  1.3 0.02 0  1.32 0.02 0  1.34 0.02 0  1.36 0.02 0  1.38 0.02 0  1.4 0.02 0  1.42 0.02 0  1.44 0.02 0  1.46 0.02 0  1.48 0.02 0  1.5 0.02 0  1.52 0.02 0  1.54 0.02 0  1.56 0.02 0  1.58 0.02 0  1.6 0.02 0  1.62 0.02 0  1.64 0.02 0  1.66 0.02 0  1.68 0.02 0  1.7 0.02 0  1.72 0.02 0  1.74 0.02 0  1.76 0.02 0  1.78 0.02 0  1.8 0.02 0  1.82 0.02 0  1.84 0.02 0  1.86 0.02 0  1.88 0.02 0  1.9 0.02 0  1.92 0.02 0  1.94 0.02 0  1.96 0.02 0  1.98 0.02 0  2 0.02 0  0 0.04 0  0.02 0.04 0  0.04 0.04 0  0.06 0.04 0  0.08 0.04 0  0.1 0.04 0  0.12 0.04 0  0.14 0.04 0  0.16 0.04 0  0.18 0.04 0  0.2 0.04 0  0.22 0.04 0  0.24 0.04 0  0.26 0.04 0  0.28 0.04 0  0.3 0.04 0  0.32 0.04 0  0.34 0.04 0  0.36 0.04 0  0.38 0.04 0  0.4 0.04 0  0.42 0.04 0  0.44 0.04 0  0.46 0.04 0  0.48 0.04 0  0.5 0.04 0  0.52 0.04 0  0.54 0.04 0  0.5600000000000001 0.04 0  0.58 0.04 0  0.6 0.04 0  0.62 0.04 0  0.64 0.04 0  0.66 0.04 0  0.68 0.04 0  0.7 0.04 0  0.72 0.04 0  0.74 0.04 0  0.76 0.04 0  0.78 0.04 0  0.8 0.04 0  0.82 0.04 0  0.84 0.04 0  0.86 0.04 0  0.88 0.04 0  0.9 0.04 0  0.92 0.04 0  0.9399999999999999 0.04 0  0.96 0.04 0  0.98 0.04 0  1 0.04 0  1.02 0.04 0  1.04 0.04 0  1.06 0.04 0  1.08 0.04 0  1.1 0.04 0  1.12 0.04 0  1.14 0.04 0  1.16 0.04 0  1.18 0.04 0  1.2 0.04 0  1.22 0.04 0  1.24 0.04 0  1.26 0.04 0  1.28 0.04 0  1.3 0.04 0  1.32 0.04 0  1.34 0.04 0  1.36 0.04 0  1.38 0.04 0  1.4 0.04 0  1.42 0.04 0  1.44 0.04 0  1.46 0.04 0  1.48 0.04 0  1.5 0.04 0  1.52 0.04 0  1.54 0.04 0  1.56 0.04 0  1.58 0.04 0  1.6 0.04 0  1.62 0.04 0  1.64 0.04 0  1.66 0.04 0  1.68 0.04 0  1.7 0.04 0  1.72 0.04 0  1.74 0.04 0  1.76 0.04 0  1.78 0.04 0  1.8 0.04 0  1.82 0.04 0  1.84 0.04 0  1.86 0.04 0  1.88 0.04 0  1.9 0.04 0  1.92 0.04 0  1.94 0.04 0  1.96 0.04 0  1.98 0.04 0  2 0.04 0  0 0.06 0  0.02 0.06 0  0.04 0.06 0  0.06 0.06 0  0.08 0.06 0  0.1 0.06 0  0.12 0.06 0  0.14 0.06 0  0.16 0.06 0  0.18 0.06 0  0.2 0.06 0  0.22 0.06 0  0.24 0.06 0  0.26 0.06 0  0.28 0.06 0  0.3 0.06 0  0.32 0.06 0  0.34 0.06 0  0.36 0.06 0  0.38 0.06 0  0.4 0.06 0  0.42 0.06 0  0.44 0.06 0  0.46 0.06 0  0.48 0.06 0  0.5 0.06 0  0.52 0.06 0  0.54 0.06 0  0.5600000000000001 0.06 0  0.58 0.06 0  0.6 0.06 0  0.62 0.06 0  0.64 0.06 0  0.66 0.06 0  0.68 0.06 0  0.7 0.06 0  0.72 0.06 0  0.74 0.06 0  0.76 0.06 0  0.78 0.06 0  0.8 0.06 0  0.82 0.06 0  0.84 0.06 0  0.86 0.06 0  0.88 0.06 0  0.9 0.06 0  0.92 0.06 0  0.9399999999999999 0.06 0  0.96 0.06 0  0.98 0.06 0  1 0.06 0  1.02 0.06 0  1.04 0.06 0  1.06 0.06 0  1.08 0.06 0  1.1 0.06 0  1.12 0.06 0  1.14 0.06 0  1.16 0.06 0  1.18 0.06 0  1.2 0.06 0  1.22 0.06 0  1.24 0.06 0  1.26 0.06 0  1.28 0.06 0  1.3 0.06 0  1.32 0.06 0  1.34 0.06 0  1.36 0.06 0  1.38 0.06 0  1.4 0.06 0  1.42 0.06 0  1.44 0.06 0  1.46 0.06 0  1.48 0.06 0  1.5 0.06 0  1.52 0.06 0  1.54 0.06 0  1.56 0.06 0  1.58 0.06 0  1.6 0.06 0  1.62 0.06 0  1.64 0.06 0  1.66 0.06 0  1.68 0.06 0  1.7 0.06 0  1.72 0.06 0  1.74 0.06 0  1.76 0.06 0  1.78 0.06 0  1.8 0.06 0  1.82 0.06 0  1.84 0.06 0  1.86 0.06 0  1.88 0.06 0  1.9 0.06 0  1.92 0.06 0  1.94 0.06 0  1.96 0.06 0  1.98 0.06 0  2 0.06 0  0 0.08 0  0.02 0.08 0  0.04 0.08 0  0.06 0.08 0  0.08 0.08 0  0.1 0.08 0  0.12 0.08 0  0.14 0.08 0  0.16 0.08 0  0.18 0.08 0  0.2 0.08 0  0.22 0.08 0  0.24 0.08 0  0.26 0.08 0  0.28 0.08 0  0.3 0.08 0  0.32 0.08 0  0.34 0.08 0  0.36 0.08 0  0.38 0.08 0  0.4 0.08 0  0.42 0.08 0  0.44 0.08 0  0.46 0.08 0  0.48 0.08 0  0.5 0.08 0  0.52 0.08 0  0.54 0.08 0  0.5600000000000001 0.08 0  0.58 0.08 0  0.6 0.08 0  0.62 0.08 0  0.64 0.08 0  0.66 0.08 0  0.68 0.08 0  0.7 0.08 0  0.72 0.08 0  0.74 0.08 0  0.76 0.08 0  0.78 0.08 0  0.8 0.08 0  0.82 0.08 0  0.84 0.08 0  0.86 0.08 0  0.88 0.08 0  0.9 0.08 0  0.92 0.08 0  0.9399999999999999 0.08 0  0.96 0.08 0  0.98 0.08 0  1 0.08 0  1.02 0.08 0  1.04 0.08 0  1.06 0.08 0  1.08 0.08 0  1.1 0.08 0  1.12 0.08 0  1.14 0.08 0  1.16 0.08 0  1.18 0.08 0  1.2 0.08 0  1.22 0.08 0  1.24 0.08 0  1.26 0.08 0  1.28 0.08 0  1.3 0.08 0  1.32 0.08 0  1.34 0.08 0  1.36 0.08 0  1.38 0.08 0  1.4 0.08 0  1.42 0.08 0  1.44 0.08 0  1.46 0.08 0  1.48 0.08 0  1.5 0.08 0  1.52 0.08 0  1.54 0.08 0  1.56 0.08 0  1.58 0.08 0  1.6 0.08 0  1.62 0.08 0  1.64 0.08 0  1.66 0.08 0  1.68 0.08 0  1.7 0.08 0  1.72 0.08 0  1.74 0.08 0  1.76 0.08 0  1.78 0.08 0  1.8 0.08 0  1.82 0.08 0  1.84 0.08 0  1.86 0.08 0  1.88 0.08 0  1.9 0.08 0  1.92 0.08 0  1.94 0.08 0  1.96 0.08 0  1.98 0.08 0  2 0.08 0  0 0.1 0  0.02 0.1 0  0.04 0.1 0  0.06 0.1 0  0.08 0.1 0  0.1 0.1 0  0.12 0.1 0  0.14 0.1 0  0.16 0.1 0  0.18 0.1 0  0.2 0.1 0  0.22 0.1 0  0.24 0.1 0  0.26 0.1 0  0.28 0.1 0  0.3 0.1 0  0.32 0.1 0  0.34 0.1 0  0.36 0.1 0  0.38 0.1 0  0.4 0.1 0  0.42 0.1 0  0.44 0.1 0  0.46 0.1 0  0.48 0.1 0  0.5 0.1 0  0.52 0.1 0  0.54 0.1 0  0.5600000000000001 0.1 0  0.58 0.1 0  0.6 0.1 0  0.62 0.1 0  0.64 0.1 0  0.66 0.1 0  0.68 0.1 0  0.7 0.1 0  0.72 0.1 0  0.74 0.1 0  0.76 0.1 0  0.78 0.1 0  0.8 0.1 0  0.82 0.1 0  0.84 0.1 0  0.86 0.1 0  0.88 0.1 0  0.9 0.1 0  0.92 0.1 0  0.9399999999999999 0.1 0  0.96 0.1 0  0.98 0.1 0  1 0.1 0  1.02 0.1 0  1.04 0.1 0  1.06 0.1 0  1.08 0.1 0  1.1 0.1 0  1.12 0.1 0  1.14 0.1 0  1.16 0.1 0  1.18 0.1 0  1.2 0.1 0  1.22 0.1 0  1.24 0.1 0  1.26 0.1 0  1.28 0.1 0  1.3 0.1 0  1.32 0.1 0  1.34 0.1 0  1.36 0.1 0  1.38 0.1 0  1.4 0.1 0  1.42 0.1 0  1.44 0.1 0  1.46 0.1 0  1.48 0.1 0  1.5 0.1 0  1.52 0.1 0  1.54 0.1 0  1.56 0.1 0  1.58 0.1 0  1.6 0.1 0  1.62 0.1 0  1.64 0.1 0  1.66 0.1 0  1.68 0.1 0  1.7 0.1 0  1.72 0.1 0  1.74 0.1 0  1.76 0.1 0  1.78 0.1 0  1.8 0.1 0  1.82 0.1 0  1.84 0.1 0  1.86 0.1 0  1.88 0.1 0  1.9 0.1 0  1.92 0.1 0  1.94 0.1 0  1.96 0.1 0  1.98 0.1 0  2 0.1 0  0 0.12 0  0.02 0.12 0  0.04 0.12 0  0.06 0.12 0  0.08 0.12 0  0.1 0.12 0  0.12 0.12 0  0.14 0.12 0  0.16 0.12 0  0.18 0.12 0  0.2 0.12 0  0.22 0.12 0  0.24 0.12 0  0.26 0.12 0  0.28 0.12 0  0.3 0.12 0  0.32 0.12 0  0.34 0.12 0  0.36 0.12 0  0.38 0.12 0  0.4 0.12 0  0.42 0.12 0  0.44 0.12 0  0.46 0.12 0  0.48 0.12 0  0.5 0.12 0  0.52 0.12 0  0.54 0.12 0  0.5600000000000001 0.12 0  0.58 0.12 0  0.6 0.12 0  0.62 0.12 0  0.64 0.12 0  0.66 0.12 0  0.68 0.12 0  0.7 0.12 0  0.72 0.12 0  0.74 0.12 0  0.76 0.12 0  0.78 0.12 0  0.8 0.12 0  0.82 0.12 0  0.84 0.12 0  0.86 0.12 0  0.88 0.12 0  0.9 0.12 0  0.92 0.12 0  0.9399999999999999 0.12 0  0.96 0.12 0  0.98 0.12 0  1 0.12 0  1.02 0.12 0  1.04 0.12 0  1.06 0.12 0  1.08 0.12 0  1.1 0.12 0  1.12 0.12 0  1.14 0.12 0  1.16 0.12 0  1.18 0.12 0  1.2 0.12 0  1.22 0.12 0  1.24 0.12 0  1.26 0.12 0  1.28 0.12 0  1.3 0.12 0  1.32 0.12 0  1.34 0.12 0  1.36 0.12 0  1.38 0.12 0  1.4 0.12 0  1.42 0.12 0  1.44 0.12 0  1.46 0.12 0  1.48 0.12 0  1.5 0.12 0  1.52 0.12 0  1.54 0.12 0  1.56 0.12 0  1.58 0.12 0  1.6 0.12 0  1.62 0.12 0  1.64 0.12 0  1.66 0.12 0  1.68 0.12 0  1.7 0.12 0  1.72 0.12 0  1.74 0.12 0  1.76 0.12 0  1.78 0.12 0  1.8 0.12 0  1.82 0.12 0  1.84 0.12 0  1.86 0.12 0  1.88 0.12 0  1.9 0.12 0  1.92 0.12 0  1.94 0.12 0  1.96 0.12 0  1.98 0.12 0  2 0.12 0  0 0.14 0  0.02 0.14 0  0.04 0.14 0  0.06 0.14 0  0.08 0.14 0  0.1 0.14 0  0.12 0.14 0  0.14 0.14 0  0.16 0.14 0  0.18 0.14 0  0.2 0.14 0  0.22 0.14 0  0.24 0.14 0  0.26 0.14 0  0.28 0.14 0  0.3 0.14 0  0.32 0.14 0  0.34 0.14 0  0.36 0.14 0  0.38 0.14 0  0.4 0.14 0  0.42 0.14 0  0.44 0.14 0  0.46 0.14 0  0.48 0.14 0  0.5 0.14 0  0.52 0.14 0  0.54 0.14 0  0.5600000000000001 0.14 0  0.58 0.14 0  0.6 0.14 0  0.62 0.14 0  0.64 0.14 0  0.66 0.14 0  0.68 0.14 0  0.7 0.14 0  0.72 0.14 0  0.74 0.14 0  0.76 0.14 0  0.78 0.14 0  0.8 0.14 0  0.82 0.14 0  0.84 0.14 0  0.86 0.14 0  0.88 0.14 0  0.9 0.14 0  0.92 0.14 0  0.9399999999999999 0.14 0  0.96 0.14 0  0.98 0.14 0  1 0.14 0  1.02 0.14 0  1.04 0.14 0  1.06 0.14 0  1.08 0.14 0  1.1 0.14 0  1.12 0.14 0  1.14 0.14 0  1.16 0.14 0  1.18 0.14 0  1.2 0.14 0  1.22 0.14 0  1.24 0.14 0  1.26 0.14 0  1.28 0.14 0  1.3 0.14 0  1.32 0.14 0  1.34 0.14 0  1.36 0.14 0  1.38 0.14 0  1.4 0.14 0  1.42 0.14 0  1.44 0.14 0  1.46 0.14 0  1.48 0.14 0  1
[...]
<PointData  Scalars="sols[i]"> 
<DataArray  type="Float64"  Name="sols[i]"  format="ascii">2.3041993159017263e-01  1.6236579144003166e-01  1.6236572535800506e-01  1.6236560248635576e-01  1.6236539628053134e-01  1.6236506816935417e-01  1.6236456473546157e-01  1.6236381717851361e-01  1.6236274282729771e-01  1.6236124777628252e-01  1.6235922984572546e-01  1.6235658127502206e-01  1.6235319064069562e-01  1.6234894347326084e-01  1.6234372102035630e-01  1.6233739664061067e-01  1.6232982944968152e-01  1.6232085506965918e-01  1.6231027365762063e-01  1.6229783581817184e-01  1.6228322750625732e-01  1.6226605581523126e-01  1.6224583881630994e-01  1.6222200452429666e-01  1.6219390351104909e-01  1.6216084080609394e-01  1.6212213003524059e-01  1.6207716874990324e-01  1.6202553073093703e-01  1.6196706772773886e-01  1.6190201063379966e-01  1.6183105860058428e-01  1.6175544422607879e-01  1.6167696407160628e-01  1.6159796673083063e-01  1.6152129538694487e-01  1.6145018695751717e-01  1.6138813776110883e-01  1.6133876564091479e-01  1.6130564439636552e-01  1.6129212479077809e-01  1.6130121689915186e-01  1.6133547349531455e-01  1.6139689880067770e-01  1.6148688269582145e-01  1.6160615279502946e-01  1.6175473671695645e-01  1.6193193121128582e-01  1.6213628526843882e-01  1.6236562057168016e-01  1.6261711744143686e-01  1.6288747707971363e-01  1.6317313299496916e-01  1.6347043081055035e-01  1.6377566256394011e-01  1.6408489351698477e-01  1.6439374848688251e-01  1.6469745587148271e-01  1.6499121648410919e-01  1.6527061006487639e-01  1.6553162775240712e-01  1.6577054442897152e-01  1.6598409945052631e-01  1.6616950359124824e-01  1.6632417435108590e-01  1.6644644918587018e-01  1.6653741594088792e-01  1.6660191051671366e-01  1.6664763232145952e-01  1.6668444293387222e-01  1.6672594789111725e-01  1.6679221869208041e-01  1.6691044495618998e-01  1.6711139406410211e-01  1.6742182394333646e-01  1.6785383947498300e-01  1.6839136787052547e-01  1.6897517282601537e-01  1.6949625096308391e-01  1.6982163962839453e-01  1.6985303090796303e-01  1.6957548650037993e-01  1.6906530332811659e-01  1.6843763193100453e-01  1.6778163596059922e-01  1.6713787329919469e-01  1.6651323504490823e-01  1.6590464987106418e-01  1.6531424795337732e-01  1.6475320445437153e-01  1.6423791655013112e-01  1.6378395192454381e-01  1.6340156965734648e-01  1.6309400139556354e-01  1.6285798125732312e-01  1.6268549533413498e-01  1.6256589594313689e-01  1.6248789712679135e-01  1.6244128167304980e-01  1.6241832434140288e-01  3.4403580493185432e-01  1.6236578724379311e-01  8.4441778318788116e-02  8.4442131648761604e-02  8.4442778924182615e-02  8.4443813045374988e-02  8.4445349428467376e-02  8.4447527047676718e-02  8.4450505233698278e-02  8.4454456400058692e-02  8.4459557152996897e-02  8.4465979729098473e-02  8.4473884678985561e-02  8.4483414888729694e-02  8.4494690484875817e-02  8.4507803861354688e-02  8.4522813970357324e-02  8.4539739141489101e-02  8.4558548056697935e-02  8.4579149103121712e-02  8.4601379083953321e-02  8.4624993077052485e-02  8.4649657790784108e-02  8.4674950833714249e-02  8.4700367895788442e-02  8.4725338759194704e-02  8.4749252258646005e-02  8.4771489198456909e-02  8.4791460872040023e-02  8.4808650215534617e-02  8.4822651932983800e-02  8.4833207772795405e-02  8.4840233666277798e-02  8.4843836513444251e-02  8.4844319688886213e-02  8.4842177462126550e-02  8.4838079218859455e-02  8.4832844537300930e-02  8.4827409945971266e-02  8.4822790842368864e-02  8.4820047569374779e-02  8.4820238605796239e-02  8.4824373961258734e-02  8.4833381101217742e-02  8.4848076766790140e-02  8.4869147765175956e-02  8.4897138684112680e-02  8.4932441903974684e-02  8.4975284289062411e-02  8.5025707715734214e-02  8.5083550167620051e-02  8.5148442597056562e-02  8.5219836291218001e-02  8.5297063359408606e-02  8.5379403328268530e-02  8.5466098991953607e-02  8.5556270173140769e-02  8.5648792223455311e-02  8.5742290511266139e-02  8.5835290852306609e-02  8.5926384682082371e-02  8.6014181773768295e-02  8.6097210092698773e-02  8.6174049628918559e-02  8.6243319111964492e-02  8.6303369321795387e-02  8.6352410372087962e-02  8.6389334239886914e-02  8.6414407833583923e-02  8.6429123123460738e-02  8.6435881599177866e-02  8.6438536808779609e-02  8.6443765583461757e-02  8.6462063213109563e-02  8.6507546168065011e-02  8.6596169866953676e-02  8.6741916996060583e-02  8.6950635195359338e-02  8.7210947388717305e-02  8.7484147729192288e-02  8.7707224896284797e-02  8.7817707139207987e-02  8.7784240599207752e-02  8.7624651159840250e-02  8.7387630166838440e-02  8.7118344332310305e-02  8.6841489083481591e-02  8.6564268786952350e-02  8.6286738110729455e-02  8.6009913522314227e-02  8.5739046692804965e-02  8.5482702956758763e-02  8.5249965652021559e-02  8.5047888318218440e-02  8.4880170395369589e-02  8.4747067795069575e-02  8.4646106368753471e-02  8.4573122022469513e-02  8.4523286996805128e-02  8.4491957388960481e-02  8.4475338285119383e-02  1.6241740024539103e-01  1.6236570708867668e-01  8.4442130384005928e-02  8.4442666987116333e-02  8.4443606169592914e-02  8.4445027133120271e-02  8.4447013721260025e-02  8.4449654867127924e-02  8.4453047974749715e-02  8.4457299537383027e-02  8.4462522401367632e-02  8.4468830991623639e-02  8.4476335772321859e-02  8.4485137627419216e-02  8.4495322274615592e-02  8.4506954440668094e-02  8.4520071369542746e-02  8.4534675325434488e-02  8.4550725100324006e-02  8.4568127086257355e-02  8.4586727113295873e-02  8.4606304884202677e-02  8.4626573002982430e-02  8.4647182117425696e-02  8.4667732825356057e-02  8.4687793976153156e-02  8.4706926120776765e-02  8.4724708406917190e-02  8.4740766708825216e-02  8.4754800732894653e-02  8.4766607770157737e-02  8.4776101127475911e-02  8.4783322104832456e-02  8.4788445365091156e-02  8.4791778288778014e-02  8.4793755154310868e-02  8.4794926734837087e-02  8.4795945419923399e-02  8.4797545499352409e-02  8.4800518276505366e-02  8.4805686986613588e-02  8.4813882970945456e-02  8.4825910805947743e-02  8.4842518822901947e-02  8.4864378239784141e-02  8.4892068460429890e-02  8.4926064511105667e-02  8.4966721462574377e-02  8.5014250471405026e-02  8.5068685805626904e-02  8.5129858669221584e-02  8.5197401882580737e-02  8.5270801877119981e-02  8.5349497019333337e-02  8.5432975826332774e-02  8.5520782866838424e-02  8.5612349601130816e-02  8.5706804868434502e-02  8.5803027054512468e-02  8.5899939453686597e-02  8.5996755820174520e-02  8.6092724545970362e-02  8.6186802452849251e-02  8.6277934717702814e-02  8.6365150030641810e-02  8.6446984232882884e-02  8.6521113477292161e-02  8.6584870698348207e-02  8.6636391880740085e-02  8.6675397760281048e-02  8.6703152774462444e-02  8.6722396166493951e-02  8.6738596684245398e-02  8.6761166737505585e-02  8.6804222788692237e-02  8.6886635083149227e-02  8.7027672782303819e-02  8.7237250589805623e-02  8.7501787113531460e-02  8.7767628779676102e-02  8.7949406339051878e-02  8.7971171360326048e-02  8.7806622691167235e-02  8.7504417827433900e-02  8.7152085702536894e-02  8.6816636842859854e-02  8.6524089755278297e-02  8.6271148763732777e-02  8.6043825828938075e-02  8.5829561357246023e-02  8.5622428773600240e-02  8.5422976934440356e-02  8.5235516576923451e-02  8.5065236321504450e-02  8.4916244248168418e-02  8.4790724872128839e-02  8.4688960809432251e-02  8.4609834767176914e-02  8.4551471556599325e-02  8.4511829964181398e-02  8.4489281314402656e-02  1.6243613676579918e-01  1.6236555139190884e-01  8.4442774130209453e-02  8.4443601696620088e-02  8.4444966845497071e-02  8.4446917428130763e-02  8.4449499025015834e-02  8.4452749196389829e-02  8.4456702280848450e-02  8.4461395873477105e-02  8.4466874301901751e-02  8.4473188537528610e-02  8.4480393448609428e-02  8.4488543367657959e-02  8.4497686561569668e-02  8.4507858810131786e-02  8.4519076107970992e-02  8.4531326584380381e-02  8.4544562112349439e-02  8.4558690637014461e-02  8.4573570817707402e-02  8.4589011114503565e-02  8.4604775093001017e-02  8.4620593441981862e-02  8.4636181731746085e-02  8.4651261797447100e-02  8.4665584030291341e-02  8.4678947972690002e-02  8.4691219178188754e-02  8.4702340900396897e-02  8.4712339631843728e-02  8.4721324528564956e-02  8.4729482053593097e-02  8.4737068144870004e-02  8.4744400376619511e-02  8.4751851755842669e-02  8.4759846306864173e-02  8.4768855245189248e-02  8.4779391906282212e-02  8.4792002115901946e-02  8.4807252029004271e-02  8.4825720228938931e-02  8.4847977391619422e-02  8.4874566870788190e-02  8.4905992448158343e-02  8.4942711250755962e-02  8.4985123638526228e-02  8.5033551764133450e-02  8.5088199596839970e-02  8.5149095556212334e-02  8.5216052945576715e-02  8.5288689793527342e-02  8.5366526994148220e-02  8.5449164353728485e-02  8.5536454744235421e-02  8.5628509037840805e-02  8.5725362334069855e-02  8.5826645986147157e-02  8.5931729729028378e-02  8.6040234589374029e-02  8.6152467061421267e-02  8.6268860028275607e-02  8.6389133415039232e-02  8.6512527368464959e-02  8.6638135229381283e-02  8.6764564232470406e-02  8.6888755726289346e-02  8.7004886476602830e-02  8.7105612093710427e-02  8.7185353815943917e-02  8.7242135401608981e-02  8.7276808262100547e-02  8.7295819790714768e-02  8.7313206230751783e-02  8.7346826160450863e-02  8.7411902024560825e-02  8.7516408132251228e-02  8.7662600461891740e-02  8.7855994570723239e-02  8.8108932701518858e-02  8.8380562770200830e-02  8.8464147912022076e-02  8.8171425289012270e-02  8.7642906515603872e-02  8.7101354144713886e-02  8.6633798784819971e-02  8.6282034359529330e-02  8.6031232514947806e-02  8.5844698086623233e-02  8.5688436820587965e-02  8.5541234614518416e-02  8.5394578622854600e-02  8.5248321292270474e-02  8.5106296639635828e-02  8.4973281330522205e-02  8.4853356341822228e-02  8.4749323542717594e-02  8.4662767189270960e-02  8.4594424197400278e-02  8.4544691287237864e-02  8.4514347934689621e-02  1.6247282051590534e-01  1.6236527967561165e-01  8.4443799062312752e-02  8.4445009459688233e-02  8.4446900227714408e-02  8.4449463383532208e-02  8.4452700284943019e-02  8.4456603407214906e-02  8.4461155546924391e-02  8.4466337435213451e-02  8.4472135292462724e-02  8.4478544997429017e-02  8.4485572546006166e-02  8.4493231492716578e-02  8.4501538110021396e-02  8.4510504759614177e-02  8.4520131826114633e-02  8.4530398703943910e-02  8.4541254842060695e-02  8.4552612517193232e-02  8.4564343558488408e-02  8.4576282896785440e-02  8.4588240654832017e-02  8.4600021964705396e-02  8.4611451513628297e-02  8.4622398629301210e-02  8.4632798557462696e-02  8.4642666685839918e-02  8.4652104097719075e-02  8.4661293882991193e-02  8.4670488452283171e-02  8.4679989852445556e-02  8.4690127048824171e-02  8.4701235168614344e-02  8.4713641172929025e-02  8.4727658222829433e-02  8.4743587885703492e-02  8.4761726859619288e-02  8.4782374395572041e-02  8.4805837620590449e-02  8.4832440144035348e-02  8.4862521797192683e-02  8.4896417060556839e-02  8.4934459277935540e-02  8.4976983294501998e-02  8.5024331186400917e-02  8.5076849905394672e-02  8.5134865754193170e-02  8.5198622006556354e-02  8.5268180158367457e-02  8.5343361807697249e-02  8.5423801534722690e-02  8.5509119399661590e-02  8.5599223167381139e-02  8.5694620481405914e-02  8.5796443814066231e-02  8.5905805499206622e-02  8.6023264358147528e-02  8.6149184037376036e-02  8.6284404305430440e-02  8.6430753462862567e-02  8.6590200291329883e-02  8.6763532474885052e-02  8.6949580714474381e-02  8.7144831379804569e-02  8.7345456238033581e-02  8.7547269997194088e-02  8.7743204070986153e-02  8.7924711125030156e-02  8.8071126782251666e-02  8.8129185301341340e-02  8.8046180526292039e-02  8.7814436102748500e-02  8.7281164458092961e-02  8.6374893472602118e-02  8.5514446006569045e-02  8.4140981637881196e-02  8.1824509265532350e-02  7.8643370329541357e-02  7.7119209867014385e-02  8.0187228744529687e-02  8.4833320683246671e-02  8.7205679890481044e-02  8.7986874918777144e-02  8.7285727092161036e-02  8.6627573345209249e-02  8.6168220288393174e-02  8.5888823974183154e-02  8.5726049117424763e-02  8.5614996989878414e-02  8.5514522590412853e-02  8.5407000622676518e-02  8.5289469781181182e-02  8.5165872277476379e-02  8.5042297264425790e-02  8.4924582408760871e-02  8.4817386819746210e-02  8.4724091214019526e-02  8.4647143093635135e-02  8.4588663109579729e-02  8.4551302264819939e-02  1.6253030457847487e-01  1.6236483617351752e-01  8.4445313414312634e-02  8.4446963080973839e-02  8.4449435926638269e-02  8.4452644651547268e-02  8.4456539182845916e-02  8.4461072560527720e-02  8.4466189254163090e-02  8.4471829037544299e-02  8.4477935577467717e-02  8.4484463537118554e-02  8.4491382030139714e-02  8.4498674265743076e-02  8.4506333843753931e-02  8.4514358186374164e-02  8.4522739598020050e-02  8.4531454758736482e-02  8.4540454298820178e-02  8.4549655023384365e-02  8.4558937971319484e-02  8.4568156730551500e-02  8.4577157793929131e-02  8.4585810097765599e-02  8.4594037911889186e-02  8.4601850329419984e-02  8.4609361271065206e-02  8.4616796595105556e-02  8.4624487778530044e-02  8.4632852490039254e-02  8.4642363235422319e-02  8.4653508094555338e-02  8.4666750562074303e-02  8.4682496615521491e-02  8.4701075641615373e-02  8.4722737685571092e-02  8.4747664108706156e-02  8.4775984913314548e-02  8.4807795219818863e-02  8.4843165094781903e-02  8.4882176608337773e-02  8.4924974519547405e-02  8.4971659217739873e-02  8.5022345306264166e-02  8.5077202212805431e-02  8.5136477049078729e-02  8.5200510526077536e-02  8.5269714337387933e-02  8.5344480829864455e-02  8.5425015461375486e-02  8.5511260929279978e-02  8.5603028595021516e-02  8.5700283719526107e-02  8.5803604892392388e-02  8.5914675950792413e-02  8.6036383314453860e-02  8.6171588605216759e-02  8.6322257126382834e-02  8.6490408736043703e-02  8.6678758017035978e-02  8.6890206035012796e-02  8.7126206099401901e-02  8.7387675668860618e-02  8.7675582949549191e-02  8.7993308108845911e-02  8.8329188572909223e-02  8.8577409985604788e-02  8.8659045169184436e-02  8.8478322833977371e-02  8.7416129846511467e-02  8.6019917847656391e-02  8.3584590609040263e-02  7.9159388904890007e-02  7.0346219863075210e-02  5.3103692937342656e-02  2.2827707065727655e-02  1.7244200241514074e-02  4.4864510995379081e-02  1.4494254133460471e-01  2.0814330503120448e-01  1.0827778160285668e-01  2.9804702440265993e-02  5.9199560742736787e-02  8.5417534111089058e-02  8.7474449285772360e-02  8.6724176040596346e-02  8.6134118493345138e-02  8.5808122601492523e-02  8.5662234697603062e-02  8.5590830281724387e-02  8.5527727772417489e-02  8.5447376694928412e-02  8.5346902292400134e-02  8.5232535772908846e-02  8.5112627480818770e-02  8.4994736388254236e-02  8.4884763235637123e-02  8.4787040984559595e-02  8.4704913079359692e-02  8.4641520467628434e-02  8.4600438537441716e-02  1.6261111672889861e-01  1.6236415169036666e-01  8.4447443005200240e-02  8.4449532742127006e-02  8.4452586119413212e-02  8.4456421312594107e-02  8.4460929125424758e-02  8.4466025139638357e-02  8.4471625391433630e-02  8.4477643035093947e-02  8.4483994918205838e-02  8.4490609748412465e-02  8.4497433736340569e-02  8.4504432311325442e-02  8.4511587686085146e-02  8.4518892394674708e-02  8.4526339155019045e-02  8.4533908019359033e-02  8.4541553251905377e-02  8.4549193740455289e-02  8.4556711504283039e-02  8.4563965859671367e-02  8.4570825071985128e-02  8.4577208988971975e-02  8.4583132639506634e-02  8.4588740788169303e-02  8.4594325556342193e-02  8.4600324608357980e-02  8.4607301574171484e-02  8.4615909741301079e-02  8.4626840504249734e-02  8.4640762884205634e-02  8.4658265110124586e-02  8.4679810389599999e-02  8.4705715993133757e-02  8.4736157538982254e-02  8.4771191718566230e-02  8.4810785918490658e-02  8.4854844005301674e-02  8.4903219570843014e-02  8.4955735227138507e-02  8.5012314895749286e-02  8.5072899870195215e-02  8.5137393374600537e-02  8.5205813716447934e-02  8.5278355899869443e-02  8.5355444156803670e-02  8.5437730220575839e-02  8.5525975771038917e-02  8.5620769842498293e-02  8.5722448892007877e-02  8.5831404693309604e-02  8.5948550863125264e-02  8.6075914509700466e-02  8.6217119932216743e-02  8.6377540783437998e-02  8.6562128363639426e-02  8.6773848411129492e-02  8.7015626943417232e-02  8.7292206971403830e-02  8.7611512951577583e-02  8.7991828702549402e-02  8.8404972778176896e-02  8.8720775309472408e-02  8.8831416371842206e-02  8.8104766150113159e-02  8.6328478641193612e-02  8.2926149996719073e-02  7.5647046062434484e-02  5.8839547459798337e-02  3.4432681134079463e-02  2.5613236518856056e-02  7.0071013455411960e-02  2.0483731378372505e-01  4.1855760665977848e-01  6.7112770049612847e-01  8.4088487172366755e-01  8.8598938831046170e-01  8.7717166406447367e-01  8.7068062933585932e-01  8.7837352091907128e-01  8.8398004091746785e-01  8.0312019011197255e-01  3.2485064874631780e-01  1.9297825452480241e-01  1.7803242572958097e-01  1.2769854059036143e-01  8.5719158305448087e-02  8.5611056947620237e-02  8.5590191960335196e-02  8.5563385287789909e-02  8.5502237495230643e-02  8.5409398790439892e-02  8.5296647536567197e-02  8.5175869554052069e-02  8.5056417460016423e-02  8.4944944401990671e-02  8.4846083845202022e-02  8.4763480873370281e-02  8.4700723114245188e-02  8.4661138261979685e-02  1.6271593141568058e-01  1.6236315214098249e-01  8.4450325264064721e-02  8.4452787283603101e-02  8.4456348933269296e-02  8.4460732285611781e-02  8.4465763251484902e-02  8.4471318631883271e-02  8.4477291248943945e-02  8.4483578062354986e-02  8.4490082433273384e-02  8.4496721396891628e-02  8.4503432271426468e-02  8.4510175869552617e-02  8.4516935127430082e-02  8.4523708562775426e-02  8.4530498408131788e-02  8.4537294249747819e-02  8.4544055580634478e-02  8.4550698658082291e-02  8.4557093990914725e-02  8.4563088495624911e-02  8.4568553689137904e-02  8.4573446546027498e-02  8.4577866860154255e-02  8.4582097072650769e-02  8.4586614884347669e-02  8.4592079335315817e-02  8.4599296057886839e-02  8.4609162384060674e-02  8.4622592797797422e-02  8.4640434006151857e-02  8.4663386397740709e-02  8.4691949581749290e-02  8.4726404228191068e-02  8.4766830032392507e-02  8.4813145844745114e-02  8.4865153358136797e-02  8.4922572479981223e-02  8.4985066884455410e-02  8.5052269453310445e-02  8.5123850404343560e-02  8.5199576327719392e-02  8.5279237245722117e-02  8.5362783424405050e-02  8.5450466877631082e-02  8.5542974624750454e-02  8.5641485932021796e-02  8.5747542398855917e-02  8.5862555932768342e-02  8.5987753587557655e-02  8.6124803225805527e-02  8.6276517728175683e-02  8.6447557946226106e-02  8.6644146089345370e-02  8.6873507608985961e-02  8.7140843566373749e-02  8.7451525552078108e-02  8.7829659152159234e-02  8.8272472817871192e-02  8.8632732689748112e-02  8.8794208323440871e-02  8.7936920070722638e-02  8.5266495626983005e-02  7.9855609322605284e-02  6.7127219725913470e-02  4.7459178174787411e-02  3.5386900936195079e-02  1.2632797086151099e-01  3.3084491588544690e-01  6.2531843274510646e-01  8.2424712230824970e-01  8.8269049110761522e-01  8.7488712767414045e-01  8.5924068776167473e-01  8.4482350060719991e-01  8.3365676639247233e-01  8.1954062746815137e-01  8.0241491972400170e-01  7.9955050402311290e-01  8.1369175364741619e-01  8.3870444235699604e-01  8.8366868354132699e-01  8.1518507805429119e-01  6.3074782439802046e-01  5.5290427266873765e-01  5.2593683896400323e-01  1.6694588751667233e-01  8.5547876232538830e-02  8.5602688295270207e-02  8.5615176317965822e-02  8.5565735226792186e-02  8.5471099046644780e-02  8.5352637329190822e-02  8.5226934309915972e-02  8.5104996960879503e-02  8.4993680951132702e-02  8.4897339297389268e-02  8.4819449863501803e-02  8.4763574097667230e-02  8.4731586727764388e-02  1.6284246926405102e-01  1.6236177448570055e-01  8.4454098582031095e-02  8.4456792770365996e-02  8.4460714123323732e-02  8.4465503063011343e-02  8.4470918931975933e-02  8.4476796871403317e-02  8.4483007804366989e-02  8.4489438749378101e-02  8.4495989586733239e-02  8.4502577799555431e-02  8.4509144666138611e-02  8.4515659052347633e-02  8.4522116591526336e-02  8.4528532696647216e-02  8.4534928332232820e-02  8.4541308740027757e-02  8.4547639699264487e-02  8.4553828371950551e-02  8.4559716768991544e-02  8.4565115655580739e-02  8.45698777776