<?xml version="1.0"?>
<VTKFile type="UnstructuredGrid"  version="0.1"  >
<UnstructuredGrid>
<Piece  NumberOfPoints="5151" NumberOfCells="10000">
<Points>
<DataArray  type="Float64"  NumberOfComponents="3"  format="ascii">0 0 0  0.02 0 0  0.04 0 0  0.06 0 0  0.08 0 0  0.1 0 0  0.12 0 0  0.14 0 0  0.16 0 0  0.18 0 0  0.2 0 0  0.22 0 0  0.24 0 0  0.26 0 0  0.28 0 0  0.3 0 0  0.32 0 0  0.34 0 0  0.36 0 0  0.38 0 0  0.4 0 0  0.42 0 0  0.44 0 0  0.46 0 0  0.48 0 0  0.5 0 0  0.52 0 0  0.54 0 0  0.5600000000000001 0 0  0.58 0 0  0.6 0 0  0.62 0 0  0.64 0 0  0.66 0 0  0.68 0 0  0.7 0 0  0.72 0 0  0.74 0 0  0.76 0 0  0.78 0 0  0.8 0 0  0.82 0 0  0.84 0 0  0.86 0 0  0.88 0 0  0.9 0 0  0.92 0 0  0.9399999999999999 0 0  0.96 0 0  0.98 0 0  1 0 0  1.02 0 0  1.04 0 0  1.06 0 0  1.08 0 0  1.1 0 0  1.12 0 0  1.14 0 0  1.16 0 0  1.18 0 0  1.2 0 0  1.22 0 0  1.24 0 0  1.26 0 0  1.28 0 0  1.3 0 0  1.32 0 0  1.34 0 0  1.36 0 0  1.38 0 0  1.4 0 0  1.42 0 0  1.44 0 0  1.46 0 0  1.48 0 0  1.5 0 0  1.52 0 0  1.54 0 0  1.56 0 0  1.58 0 0  1.6 0 0  1.62 0 0  1.64 0 0  1.66 0 0  1.68 0 0  1.7 0 0  1.72 0 0  1.74 0 0  1.76 0 0  1.78 0 0  1.8 0 0  1.82 0 0  1.84 0 0  1.86 0 0  1.88 0 0  1.9 0 0  1.92 0 0  1.94 0 0  1.96 0 0  1.98 0 0  2 0 0  0 0.02 0  0.02 0.02 0  0.04 0.02 0  0.06 0.02 0  0.08 0.02 0  0.1 0.02 0  0.12 0.02 0  0.14 0.02 0  0.16 0.02 0  0.18 0.02 0  0.2 0.02 0  0.22 0.02 0  0.24 0.02 0  0.26 0.02 0  0.28 0.02 0  0.3 0.02 0  0.32 0.02 0  0.34 0.02 0  0.36 0.02 0  0.38 0.02 0  0.4 0.02 0  0.42 0.02 0  0.44 0.02 0  0.46 0.02 0  0.48 0.02 0  0.5 0.02 0  0.52 0.02 0  0.54 0.02 0  0.5600000000000001 0.02 0  0.58 0.02 0  0.6 0.02 0  0.62 0.02 0  0.64 0.02 0  0.66 0.02 0  0.68 0.02 0  0.7 0.02 0  0.72 0.02 0  0.74 0.02 0  0.76 0.02 0  0.78 0.02 0  0.8 0.02 0  0.82 0.02 0  0.84 0.02 0  0.86 0.02 0  0.88 0.02 0  0.9 0.02 0  0.92 0.02 0  0.9399999999999999 0.02 0  0.96 0.02 0  0.98 0.02 0  1 0.02 0  1.02 0.02 0  1.04 0.02 0  1.06 0.02 0  1.08 0.02 0  1.1 0.02 0  1.12 0.02 0  1.14 0.02 0  1.16 0.02 0  1.18 0.02 0  1.2 0.02 0  1.22 0.02 0  1.24 0.02 0  1.26 0.02 0  1.28 0.02 0  1.3 0.02 0  1.32 0.02 0  1.34 0.02 0  1.36 0.02 0  1.38 0.02 0  1.4 0.02 0  1.42 0.02 0  1.44 0.02 0  1.46 0.02 0  1.48 0.02 0  1.5 0.02 0  1.52 0.02 0  1.54 0.02 0  1.56 0.02 0  1.58 0.02 0  1.6 0.02 0  1.62 0.02 0  1.64 0.02 0  1.66 0.02 0  1.68 0.02 0  1.7 0.02 0  1.72 0.02 0  1.74 0.02 0  1.76 0.02 0  1.78 0.02 0  1.8 0.02 0  1.82 0.02 0  1.84 0.02 0  1.86 0.02 0  1.88 0.02 0  1.9 0.02 0  1.92 0.02 0  1.94 0.02 0  1.96 0.02 0  1.98 0.02 0  2 0.02 0  0 0.04 0  0.02 0.04 0  0.04 0.04 0  0.06 0.04 0  0.08 0.04 0  0.1 0.04 0  0.12 0.04 0  0.14 0.04 0  0.16 0.04 0  0.18 0.04 0  0.2 0.04 0  0.22 0.04 0  0.24 0.04 0  0.26 0.04 0  0.28 0.04 0  0.3 0.04 0  0.32 0.04 0  0.34 0.04 0  0.36 0.04 0  0.38 0.04 0  0.4 0.04 0  0.42 0.04 0  0.44 0.04 0  0.46 0.04 0  0.48 0.04 0  0.5 0.04 0  0.52 0.04 0  0.54 0.04 0  0.5600000000000001 0.04 0  0.58 0.04 0  0.6 0.04 0  0.62 0.04 0  0.64 0.04 0  0.66 0.04 0  0.68 0.04 0  0.7 0.04 0  0.72 0.04 0  0.74 0.04 0  0.76 0.04 0  0.78 0.04 0  0.8 0.04 0  0.82 0.04 0  0.84 0.04 0  0.86 0.04 0  0.88 0.04 0  0.9 0.04 0  0.92 0.04 0  0.9399999999999999 0.04 0  0.96 0.04 0  0.98 0.04 0  1 0.04 0  1.02 0.04 0  1.04 0.04 0  1.06 0.04 0  1.08 0.04 0  1.1 0.04 0  1.12 0.04 0  1.14 0.04 0  1.16 0.04 0  1.18 0.04 0  1.2 0.04 0  1.22 0.04 0  1.24 0.04 0  1.26 0.04 0  1.28 0.04 0  1.3 0.04 0  1.32 0.04 0  1.34 0.04 0  1.36 0.04 0  1.38 0.04 0  1.4 0.04 0  1.42 0.04 0  1.44 0.04 0  1.46 0.04 0  1.48 0.04 0  1.5 0.04 0  1.52 0.04 0  1.54 0.04 0  1.56 0.04 0  1.58 0.04 0  1.6 0.04 0  1.62 0.04 0  1.64 0.04 0  1.66 0.04 0  1.68 0.04 0  1.7 0.04 0  1.72 0.04 0  1.74 0.04 0  1.76 0.04 0  1.78 0.04 0  1.8 0.04 0  1.82 0.04 0  1.84 0.04 0  1.86 0.04 0  1.88 0.04 0  1.9 0.04 0  1.92 0.04 0  1.94 0.04 0  1.96 0.04 0  1.98 0.04 0  2 0.04 0  0 0.06 0  0.02 0.06 0  0.04 0.06 0  0.06 0.06 0  0.08 0.06 0  0.1 0.06 0  0.12 0.06 0  0.14 0.06 0  0.16 0.06 0  0.18 0.06 0  0.2 0.06 0  0.22 0.06 0  0.24 0.06 0  0.26 0.06 0  0.28 0.06 0  0.3 0.06 0  0.32 0.06 0  0.34 0.06 0  0.36 0.06 0  0.38 0.06 0  0.4 0.06 0  0.42 0.06 0  0.44 0.06 0  0.46 0.06 0  0.48 0.06 0  0.5 0.06 0  0.52 0.06 0  0.54 0.06 0  0.5600000000000001 0.06 0  0.58 0.06 0  0.6 0.06 0  0.62 0.06 0  0.64 0.06 0  0.66 0.06 0  0.68 0.06 0  0.7 0.06 0  0.72 0.06 0  0.74 0.06 0  0.76 0.06 0  0.78 0.06 0  0.8 0.06 0  0.82 0.06 0  0.84 0.06 0  0.86 0.06 0  0.88 0.06 0  0.9 0.06 0  0.92 0.06 0  0.9399999999999999 0.06 0  0.96 0.06 0  0.98 0.06 0  1 0.06 0  1.02 0.06 0  1.04 0.06 0  1.06 0.06 0  1.08 0.06 0  1.1 0.06 0  1.12 0.06 0  1.14 0.06 0  1.16 0.06 0  1.18 0.06 0  1.2 0.06 0  1.22 0.06 0  1.24 0.06 0  1.26 0.06 0  1.28 0.06 0  1.3 0.06 0  1.32 0.06 0  1.34 0.06 0  1.36 0.06 0  1.38 0.06 0  1.4 0.06 0  1.42 0.06 0  1.44 0.06 0  1.46 0.06 0  1.48 0.06 0  1.5 0.06 0  1.52 0.06 0  1.54 0.06 0  1.56 0.06 0  1.58 0.06 0  1.6 0.06 0  1.62 0.06 0  1.64 0.06 0  1.66 0.06 0  1.68 0.06 0  1.7 0.06 0  1.72 0.06 0  1.74 0.06 0  1.76 0.06 0  1.78 0.06 0  1.8 0.06 0  1.82 0.06 0  1.84 0.06 0  1.86 0.06 0  1.88 0.06 0  1.9 0.06 0  1.92 0.06 0  1.94 0.06 0  1.96 0.06 0  1.98 0.06 0  2 0.06 0  0 0.08 0  0.02 0.08 0  0.04 0.08 0  0.06 0.08 0  0.08 0.08 0  0.1 0.08 0  0.12 0.08 0  0.14 0.08 0  0.16 0.08 0  0.18 0.08 0  0.2 0.08 0  0.22 0.08 0  0.24 0.08 0  0.26 0.08 0  0.28 0.08 0  0.3 0.08 0  0.32 0.08 0  0.34 0.08 0  0.36 0.08 0  0.38 0.08 0  0.4 0.08 0  0.42 0.08 0  0.44 0.08 0  0.46 0.08 0  0.48 0.08 0  0.5 0.08 0  0.52 0.08 0  0.54 0.08 0  0.5600000000000001 0.08 0  0.58 0.08 0  0.6 0.08 0  0.62 0.08 0  0.64 0.08 0  0.66 0.08 0  0.68 0.08 0  0.7 0.08 0  0.72 0.08 0  0.74 0.08 0  0.76 0.08 0  0.78 0.08 0  0.8 0.08 0  0.82 0.08 0  0.84 0.08 0  0.86 0.08 0  0.88 0.08 0  0.9 0.08 0  0.92 0.08 0  0.9399999999999999 0.08 0  0.96 0.08 0  0.98 0.08 0  1 0.08 0  1.02 0.08 0  1.04 0.08 0  1.06 0.08 0  1.08 0.08 0  1.1 0.08 0  1.12 0.08 0  1.14 0.08 0  1.16 0.08 0  1.18 0.08 0  1.2 0.08 0  1.22 0.08 0  1.24 0.08 0  1.26 0.08 0  1.28 0.08 0  1.3 0.08 0  1.32 0.08 0  1.34 0.08 0  1.36 0.08 0  1.38 0.08 0  1.4 0.08 0  1.42 0.08 0  1.44 0.08 0  1.46 0.08 0  1.48 0.08 0  1.5 0.08 0  1.52 0.08 0  1.54 0.08 0  1.56 0.08 0  1.58 0.08 0  1.6 0.08 0  1.62 0.08 0  1.64 0.08 0  1.66 0.08 0  1.68 0.08 0  1.7 0.08 0  1.72 0.08 0  1.74 0.08 0  1.76 0.08 0  1.78 0.08 0  1.8 0.08 0  1.82 0.08 0  1.84 0.08 0  1.86 0.08 0  1.88 0.08 0  1.9 0.08 0  1.92 0.08 0  1.94 0.08 0  1.96 0.08 0  1.98 0.08 0  2 0.08 0  0 0.1 0  0.02 0.1 0  0.04 0.1 0  0.06 0.1 0  0.08 0.1 0  0.1 0.1 0  0.12 0.1 0  0.14 0.1 0  0.16 0.1 0  0.18 0.1 0  0.2 0.1 0  0.22 0.1 0  0.24 0.1 0  0.26 0.1 0  0.28 0.1 0  0.3 0.1 0  0.32 0.1 0  0.34 0.1 0  0.36 0.1 0  0.38 0.1 0  0.4 0.1 0  0.42 0.1 0  0.44 0.1 0  0.46 0.1 0  0.48 0.1 0  0.5 0.1 0  0.52 0.1 0  0.54 0.1 0  0.5600000000000001 0.1 0  0.58 0.1 0  0.6 0.1 0  0.62 0.1 0  0.64 0.1 0  0.66 0.1 0  0.68 0.1 0  0.7 0.1 0  0.72 0.1 0  0.74 0.1 0  0.76 0.1 0  0.78 0.1 0  0.8 0.1 0  0.82 0.1 0  0.84 0.1 0  0.86 0.1 0  0.88 0.1 0  0.9 0.1 0  0.92 0.1 0  0.9399999999999999 0.1 0  0.96 0.1 0  0.98 0.1 0  1 0.1 0  1.02 0.1 0  1.04 0.1 0  1.06 0.1 0  1.08 0.1 0  1.1 0.1 0  1.12 0.1 0  1.14 0.1 0  1.16 0.1 0  1.18 0.1 0  1.2 0.1 0  1.22 0.1 0  1.24 0.1 0  1.26 0.1 0  1.28 0.1 0  1.3 0.1 0  1.32 0.1 0  1.34 0.1 0  1.36 0.1 0  1.38 0.1 0  1.4 0.1 0  1.42 0.1 0  1.44 0.1 0  1.46 0.1 0  1.48 0.1 0  1.5 0.1 0  1.52 0.1 0  1.54 0.1 0  1.56 0.1 0  1.58 0.1 0  1.6 0.1 0  1.62 0.1 0  1.64 0.1 0  1.66 0.1 0  1.68 0.1 0  1.7 0.1 0  1.72 0.1 0  1.74 0.1 0  1.76 0.1 0  1.78 0.1 0  1.8 0.1 0  1.82 0.1 0  1.84 0.1 0  1.86 0.1 0  1.88 0.1 0  1.9 0.1 0  1.92 0.1 0  1.94 0.1 0  1.96 0.1 0  1.98 0.1 0  2 0.1 0  0 0.12 0  0.02 0.12 0  0.04 0.12 0  0.06 0.12 0  0.08 0.12 0  0.1 0.12 0  0.12 0.12 0  0.14 0.12 0  0.16 0.12 0  0.18 0.12 0  0.2 0.12 0  0.22 0.12 0  0.24 0.12 0  0.26 0.12 0  0.28 0.12 0  0.3 0.12 0  0.32 0.12 0  0.34 0.12 0  0.36 0.12 0  0.38 0.12 0  0.4 0.12 0  0.42 0.12 0  0.44 0.12 0  0.46 0.12 0  0.48 0.12 0  0.5 0.12 0  0.52 0.12 0  0.54 0.12 0  0.5600000000000001 0.12 0  0.58 0.12 0  0.6 0.12 0  0.62 0.12 0  0.64 0.12 0  0.66 0.12 0  0.68 0.12 0  0.7 0.12 0  0.72 0.12 0  0.74 0.12 0  0.76 0.12 0  0.78 0.12 0  0.8 0.12 0  0.82 0.12 0  0.84 0.12 0  0.86 0.12 0  0.88 0.12 0  0.9 0.12 0  0.92 0.12 0  0.9399999999999999 0.12 0  0.96 0.12 0  0.98 0.12 0  1 0.12 0  1.02 0.12 0  1.04 0.12 0  1.06 0.12 0  1.08 0.12 0  1.1 0.12 0  1.12 0.12 0  1.14 0.12 0  1.16 0.12 0  1.18 0.12 0  1.2 0.12 0  1.22 0.12 0  1.24 0.12 0  1.26 0.12 0  1.28 0.12 0  1.3 0.12 0  1.32 0.12 0  1.34 0.12 0  1.36 0.12 0  1.38 0.12 0  1.4 0.12 0  1.42 0.12 0  1.44 0.12 0  1.46 0.12 0  1.48 0.12 0  1.5 0.12 0  1.52 0.12 0  1.54 0.12 0  1.56 0.12 0  1.58 0.12 0  1.6 0.12 0  1.62 0.12 0  1.64 0.12 0  1.66 0.12 0  1.68 0.12 0  1.7 0.12 0  1.72 0.12 0  1.74 0.12 0  1.76 0.12 0  1.78 0.12 0  1.8 0.12 0  1.82 0.12 0  1.84 0.12 0  1.86 0.12 0  1.88 0.12 0  1.9 0.12 0  1.92 0.12 0  1.94 0.12 0  1.96 0.12 0  1.98 0.12 0  2 0.12 0  0 0.14 0  0.02 0.14 0  0.04 0.14 0  0.06 0.14 0  0.08 0.14 0  0.1 0.14 0  0.12 0.14 0  0.14 0.14 0  0.16 0.14 0  0.18 0.14 0  0.2 0.14 0  0.22 0.14 0  0.24 0.14 0  0.26 0.14 0  0.28 0.14 0  0.3 0.14 0  0.32 0.14 0  0.34 0.14 0  0.36 0.14 0  0.38 0.14 0  0.4 0.14 0  0.42 0.14 0  0.44 0.14 0  0.46 0.14 0  0.48 0.14 0  0.5 0.14 0  0.52 0.14 0  0.54 0.14 0  0.5600000000000001 0.14 0  0.58 0.14 0  0.6 0.14 0  0.62 0.14 0  0.64 0.14 0  0.66 0.14 0  0.68 0.14 0  0.7 0.14 0  0.72 0.14 0  0.74 0.14 0  0.76 0.14 0  0.78 0.14 0  0.8 0.14 0  0.82 0.14 0  0.84 0.14 0  0.86 0.14 0  0.88 0.14 0  0.9 0.14 0  0.92 0.14 0  0.9399999999999999 0.14 0  0.96 0.14 0  0.98 0.14 0  1 0.14 0  1.02 0.14 0  1.04 0.14 0  1.06 0.14 0  1.08 0.14 0  1.1 0.14 0  1.12 0.14 0  1.14 0.14 0  1.16 0.14 0  1.18 0.14 0  1.2 0.14 0  1.22 0.14 0  1.24 0.14 0  1.26 0.14 0  1.28 0.14 0  1.3 0.14 0  1.32 0.14 0  1.34 0.14 0  1.36 0.14 0  1.38 0.14 0  1.4 0.14 0  1.42 0.14 0  1.44 0.14 0  1.46 0.14 0  1.48 0.14 0  1
[...]
<PointData  Scalars="sols[i]"> 
<DataArray  type="Float64"  Name="sols[i]"  format="ascii">2.5836953327290266e-03  1.7244723538413287e-03  1.7244723538413376e-03  1.7244723538413535e-03  1.7244723538413814e-03  1.7244723538414263e-03  1.7244723538414909e-03  1.7244723538415853e-03  1.7244723538417119e-03  1.7244723538418745e-03  1.7244723538420805e-03  1.7244723538423295e-03  1.7244723538426202e-03  1.7244723538429553e-03  1.7244723538433345e-03  1.7244723538437454e-03  1.7244723538441867e-03  1.7244723538446544e-03  1.7244723538451289e-03  1.7244723538456033e-03  1.7244723538460676e-03  1.7244723538464963e-03  1.7244723538468770e-03  1.7244723538471962e-03  1.7244723538474270e-03  1.7244723538475571e-03  1.7244723538475740e-03  1.7244723538474664e-03  1.7244723538472374e-03  1.7244723538468790e-03  1.7244723538464195e-03  1.7244723538458956e-03  1.7244723538453585e-03  1.7244723538448830e-03  1.7244723538445764e-03  1.7244723538445532e-03  1.7244723538449847e-03  1.7244723538460665e-03  1.7244723538480250e-03  1.7244723538511230e-03  1.7244723538556645e-03  1.7244723538619639e-03  1.7244723538703919e-03  1.7244723538813382e-03  1.7244723538952119e-03  1.7244723539124442e-03  1.7244723539334888e-03  1.7244723539587901e-03  1.7244723539888303e-03  1.7244723540240966e-03  1.7244723540650909e-03  1.7244723541123645e-03  1.7244723541665645e-03  1.7244723542285533e-03  1.7244723542996646e-03  1.7244723543822465e-03  1.7244723544808348e-03  1.7244723546045483e-03  1.7244723547723425e-03  1.7244723550237375e-03  1.7244723554412796e-03  1.7244723561969755e-03  1.7244723576475170e-03  1.7244723605279928e-03  1.7244723663420399e-03  1.7244723781386318e-03  1.7244724020378166e-03  1.7244724501796597e-03  1.7244725463149970e-03  1.7244727361586480e-03  1.7244731060136447e-03  1.7244738150647789e-03  1.7244751487505200e-03  1.7244776013631384e-03  1.7244819920800456e-03  1.7244896033619416e-03  1.7245022943018246e-03  1.7245224765559310e-03  1.7245527598478225e-03  1.7245950479109699e-03  1.7246490560321214e-03  1.7247108051621262e-03  1.7247724223220231e-03  1.7248243783596247e-03  1.7248588375625915e-03  1.7248706015330054e-03  1.7248563706596328e-03  1.7248172314577948e-03  1.7247611057807227e-03  1.7246991808369230e-03  1.7246407232902306e-03  1.7245910855055472e-03  1.7245522145916403e-03  1.7245237773409411e-03  1.7245041811237609e-03  1.7244913780386751e-03  1.7244834082473749e-03  1.7244786805294117e-03  1.7244760539339744e-03  1.7244748145981838e-03  5.1500558833341035e-03  1.7244723538413285e-03  8.6326014924374261e-04  8.6326014924374716e-04  8.6326014924375518e-04  8.6326014924376830e-04  8.6326014924378879e-04  8.6326014924381785e-04  8.6326014924385829e-04  8.6326014924391304e-04  8.6326014924398200e-04  8.6326014924406852e-04  8.6326014924417369e-04  8.6326014924429555e-04  8.6326014924443520e-04  8.6326014924459349e-04  8.6326014924476577e-04  8.6326014924494932e-04  8.6326014924514372e-04  8.6326014924534181e-04  8.6326014924553848e-04  8.6326014924573060e-04  8.6326014924590873e-04  8.6326014924606584e-04  8.6326014924619746e-04  8.6326014924629363e-04  8.6326014924634794e-04  8.6326014924635705e-04  8.6326014924631694e-04  8.6326014924623031e-04  8.6326014924609641e-04  8.6326014924592532e-04  8.6326014924573830e-04  8.6326014924555800e-04  8.6326014924541922e-04  8.6326014924537043e-04  8.6326014924546508e-04  8.6326014924577570e-04  8.6326014924639370e-04  8.6326014924741838e-04  8.6326014924896694e-04  8.6326014925117395e-04  8.6326014925418109e-04  8.6326014925814894e-04  8.6326014926325456e-04  8.6326014926967857e-04  8.6326014927761362e-04  8.6326014928726216e-04  8.6326014929882528e-04  8.6326014931251507e-04  8.6326014932855519e-04  8.6326014934717246e-04  8.6326014936861928e-04  8.6326014939319662e-04  8.6326014942131259e-04  8.6326014945360924e-04  8.6326014949123474e-04  8.6326014953642775e-04  8.6326014959373131e-04  8.6326014967262198e-04  8.6326014979299271e-04  8.6326014999660934e-04  8.6326015037102653e-04  8.6326015109900920e-04  8.6326015255999071e-04  8.6326015553655567e-04  8.6326016163044018e-04  8.6326017409077047e-04  8.6326019944002799e-04  8.6326025061266628e-04  8.6326035289060869e-04  8.6326055484720553e-04  8.6326094789043392e-04  8.6326169974167198e-04  8.6326310865065951e-04  8.6326568435653216e-04  8.6327025426161498e-04  8.6327807092054926e-04  8.6329084976119940e-04  8.6331059291778047e-04  8.6333899504139157e-04  8.6337631004803576e-04  8.6342000237149227e-04  8.6346431055565886e-04  8.6350201790120627e-04  8.6352749348830285e-04  8.6353722424520460e-04  8.6352827938236242e-04  8.6350068175896158e-04  8.6346043647429229e-04  8.6341626928728788e-04  8.6337503618211123e-04  8.6334041336794836e-04  8.6331359228924271e-04  8.6329419154392614e-04  8.6328098360241980e-04  8.6327246178190546e-04  8.6326722079567561e-04  8.6326414257110139e-04  8.6326243671134802e-04  8.6326160623110106e-04  1.7244747077568537e-03  1.7244723538413368e-03  8.6326014924374694e-04  8.6326014924375258e-04  8.6326014924376147e-04  8.6326014924377535e-04  8.6326014924379530e-04  8.6326014924382154e-04  8.6326014924385601e-04  8.6326014924390014e-04  8.6326014924395327e-04  8.6326014924401756e-04  8.6326014924409367e-04  8.6326014924417976e-04  8.6326014924427658e-04  8.6326014924438500e-04  8.6326014924450046e-04  8.6326014924462124e-04  8.6326014924474831e-04  8.6326014924487484e-04  8.6326014924499768e-04  8.6326014924511662e-04  8.6326014924522341e-04  8.6326014924531427e-04  8.6326014924538875e-04  8.6326014924543960e-04  8.6326014924546454e-04  8.6326014924546497e-04  8.6326014924544112e-04  8.6326014924539948e-04  8.6326014924534289e-04  8.6326014924528478e-04  8.6326014924524802e-04  8.6326014924525572e-04  8.6326014924534072e-04  8.6326014924554748e-04  8.6326014924592229e-04  8.6326014924652727e-04  8.6326014924743995e-04  8.6326014924874143e-04  8.6326014925052711e-04  8.6326014925290563e-04  8.6326014925598824e-04  8.6326014925990221e-04  8.6326014926478740e-04  8.6326014927078467e-04  8.6326014927804438e-04  8.6326014928672537e-04  8.6326014929698376e-04  8.6326014930898729e-04  8.6326014932291539e-04  8.6326014933895486e-04  8.6326014935732341e-04  8.6326014937830164e-04  8.6326014940230609e-04  8.6326014943004931e-04  8.6326014946288545e-04  8.6326014950355583e-04  8.6326014955775900e-04  8.6326014963756257e-04  8.6326014976860965e-04  8.6326015000535994e-04  8.6326015046330406e-04  8.6326015138652183e-04  8.6326015328865653e-04  8.6326015724510141e-04  8.6326016549384673e-04  8.6326018265959169e-04  8.6326021821996946e-04  8.6326029140761464e-04  8.6326044079376761e-04  8.6326074264162942e-04  8.6326134514399708e-04  8.6326253014404200e-04  8.6326481937530229e-04  8.6326914570261583e-04  8.6327710250352495e-04  8.6329124623689207e-04  8.6331532372198707e-04  8.6335409154540319e-04  8.6341212962122438e-04  8.6349104022566837e-04  8.6358548900360870e-04  8.6368134388697775e-04  8.6376090084375906e-04  8.6381286441494754e-04  8.6383194870455753e-04  8.6380982584585600e-04  8.6374446375723102e-04  8.6365267388843867e-04  8.6355703692705629e-04  8.6347204523756500e-04  8.6340357418968321e-04  8.6335249245423772e-04  8.6331693119190379e-04  8.6329367219842247e-04  8.6327926728265749e-04  8.6327075757897153e-04  8.6326594529563755e-04  8.6326336652716655e-04  8.6326214487139402e-04  1.7244754595343241e-03  1.7244723538413519e-03  8.6326014924375453e-04  8.6326014924376104e-04  8.6326014924377145e-04  8.6326014924378608e-04  8.6326014924380592e-04  8.6326014924383010e-04  8.6326014924385970e-04  8.6326014924389548e-04  8.6326014924393538e-04  8.6326014924398157e-04  8.6326014924403372e-04  8.6326014924408977e-04  8.6326014924415059e-04  8.6326014924421695e-04  8.6326014924428525e-04  8.6326014924435366e-04  8.6326014924442446e-04  8.6326014924449233e-04  8.6326014924455532e-04  8.6326014924461496e-04  8.6326014924466613e-04  8.6326014924470744e-04  8.6326014924474116e-04  8.6326014924476458e-04  8.6326014924477889e-04  8.6326014924478973e-04  8.6326014924480144e-04  8.6326014924482529e-04  8.6326014924486801e-04  8.6326014924494585e-04  8.6326014924508463e-04  8.6326014924530841e-04  8.6326014924564950e-04  8.6326014924614932e-04  8.6326014924684928e-04  8.6326014924780305e-04  8.6326014924907634e-04  8.6326014925073582e-04  8.6326014925285793e-04  8.6326014925552875e-04  8.6326014925883459e-04  8.6326014926287227e-04  8.6326014926775053e-04  8.6326014927357486e-04  8.6326014928045890e-04  8.6326014928852298e-04  8.6326014929788463e-04  8.6326014930867244e-04  8.6326014932102974e-04  8.6326014933511028e-04  8.6326014935111006e-04  8.6326014936930840e-04  8.6326014939016715e-04  8.6326014941454543e-04  8.6326014944416540e-04  8.6326014948262834e-04  8.6326014953757690e-04  8.6326014962542406e-04  8.6326014978147241e-04  8.6326015008159442e-04  8.6326015068866318e-04  8.6326015195144234e-04  8.6326015461445256e-04  8.6326016026116743e-04  8.6326017224455296e-04  8.6326019762726722e-04  8.6326025119287165e-04  8.6326036365275095e-04  8.6326059822109324e-04  8.6326108354708607e-04  8.6326207778555767e-04  8.6326408985465571e-04  8.6326810051024188e-04  8.6327594470283694e-04  8.6329092237355455e-04  8.6331865180946466e-04  8.6336796475114006e-04  8.6345109498390713e-04  8.6358142541955525e-04  8.6376624297501876e-04  8.6399412816219438e-04  8.6422642682860800e-04  8.6441327816810852e-04  8.6453112914722328e-04  8.6457704489680020e-04  8.6452219787669534e-04  8.6435166320850230e-04  8.6411936845977853e-04  8.6389054054190277e-04  8.6369696623917846e-04  8.6354671450728469e-04  8.6343838939204748e-04  8.6336575864862488e-04  8.6332017080376273e-04  8.6329311688744439e-04  8.6327779193770928e-04  8.6326945987416843e-04  8.6326514614318804e-04  8.6326315542815772e-04  1.7244769358574011e-03  1.7244723538413775e-03  8.6326014924376668e-04  8.6326014924377372e-04  8.6326014924378489e-04  8.6326014924380007e-04  8.6326014924382002e-04  8.6326014924384279e-04  8.6326014924386924e-04  8.6326014924389917e-04  8.6326014924392996e-04  8.6326014924396335e-04  8.6326014924399880e-04  8.6326014924403404e-04  8.6326014924406960e-04  8.6326014924410701e-04  8.6326014924414246e-04  8.6326014924417520e-04  8.6326014924420784e-04  8.6326014924423646e-04  8.6326014924426042e-04  8.6326014924428308e-04  8.6326014924430130e-04  8.6326014924431593e-04  8.6326014924433285e-04  8.6326014924435171e-04  8.6326014924437773e-04  8.6326014924442067e-04  8.6326014924448854e-04  8.6326014924459696e-04  8.6326014924475699e-04  8.6326014924498814e-04  8.6326014924531947e-04  8.6326014924577700e-04  8.6326014924639402e-04  8.6326014924721097e-04  8.6326014924826633e-04  8.6326014924960857e-04  8.6326014925129624e-04  8.6326014925338507e-04  8.6326014925593891e-04  8.6326014925902780e-04  8.6326014926271918e-04  8.6326014926708917e-04  8.6326014927222243e-04  8.6326014927819942e-04  8.6326014928510698e-04  8.6326014929303738e-04  8.6326014930208049e-04  8.6326014931233769e-04  8.6326014932392836e-04  8.6326014933698909e-04  8.6326014935171245e-04  8.6326014936840558e-04  8.6326014938762578e-04  8.6326014941047642e-04  8.6326014943925538e-04  8.6326014947887028e-04  8.6326014953989601e-04  8.6326014964528718e-04  8.6326014984490669e-04  8.6326015024699575e-04  8.6326015108634246e-04  8.6326015287139320e-04  8.6326015670098338e-04  8.6326016494400531e-04  8.6326018269211558e-04  8.6326022084961694e-04  8.6326030266599017e-04  8.6326047744270866e-04  8.6326084901944755e-04  8.6326163425417201e-04  8.6326328117806777e-04  8.6326670272030871e-04  8.6327372591708871e-04  8.6328792089723099e-04  8.6331604100924899e-04  8.6337029116561866e-04  8.6347129199783291e-04  8.6365033300538356e-04  8.6394634758667926e-04  8.6438819376023442e-04  8.6495444589953054e-04  8.6553511936317263e-04  8.6597882484951670e-04  8.6624290711118340e-04  8.6636549988558498e-04  8.6623703750429010e-04  8.6577600118361675e-04  8.6517184414204866e-04  8.6461844072224965e-04  8.6417458473689464e-04  8.6384114178075333e-04  8.6360834099044679e-04  8.6345837110944255e-04  8.6336838246500551e-04  8.6331736720120515e-04  8.6328970112353027e-04  8.6327524189577527e-04  8.6326800328211041e-04  8.6326474278236066e-04  1.7244792694298132e-03  1.7244723538414183e-03  8.6326014924378511e-04  8.6326014924379161e-04  8.6326014924380256e-04  8.6326014924381774e-04  8.6326014924383704e-04  8.6326014924385883e-04  8.6326014924388269e-04  8.6326014924390849e-04  8.6326014924393288e-04  8.6326014924395750e-04  8.6326014924398146e-04  8.6326014924400238e-04  8.6326014924402103e-04  8.6326014924403903e-04  8.6326014924405269e-04  8.6326014924406223e-04  8.6326014924407090e-04  8.6326014924407546e-04  8.6326014924407697e-04  8.6326014924408012e-04  8.6326014924408370e-04  8.6326014924409096e-04  8.6326014924411048e-04  8.6326014924414517e-04  8.6326014924420339e-04  8.6326014924429924e-04  8.6326014924444517e-04  8.6326014924466038e-04  8.6326014924496103e-04  8.6326014924537086e-04  8.6326014924592229e-04  8.6326014924664437e-04  8.6326014924757201e-04  8.6326014924874609e-04  8.6326014925020402e-04  8.6326014925199078e-04  8.6326014925415951e-04  8.6326014925675878e-04  8.6326014925984258e-04  8.6326014926346923e-04  8.6326014926769220e-04  8.6326014927257219e-04  8.6326014927817557e-04  8.6326014928456455e-04  8.6326014929180551e-04  8.6326014929997085e-04  8.6326014930913160e-04  8.6326014931937156e-04  8.6326014933079624e-04  8.6326014934353865e-04  8.6326014935780718e-04  8.6326014937396765e-04  8.6326014939273074e-04  8.6326014941556437e-04  8.6326014944559525e-04  8.6326014948959694e-04  8.6326014956231547e-04  8.6326014969600670e-04  8.6326014996125763e-04  8.6326015051248033e-04  8.6326015168732896e-04  8.6326015422348514e-04  8.6326015973075263e-04  8.6326017171719409e-04  8.6326019781431725e-04  8.6326025458822553e-04  8.6326037790306238e-04  8.6326064513714360e-04  8.6326122251127778e-04  8.6326246509373474e-04  8.6326512582930899e-04  8.6327078609606494e-04  8.6328272482733741e-04  8.6330762325619709e-04  8.6335876911669204e-04  8.6346168495099115e-04  8.6366289063996820e-04  8.6404026347481461e-04  8.6470486769682302e-04  8.6576290633577592e-04  8.6718920918252415e-04  8.6865936943702408e-04  8.6967119426569362e-04  8.7016575156036494e-04  8.7048044061553437e-04  8.7023651228175806e-04  8.6900714562089662e-04  8.6745442698367469e-04  8.6615251853479022e-04  8.6515812387224806e-04  8.6442510253482876e-04  8.6392853871342600e-04  8.6362351888226387e-04  8.6345001269234087e-04  8.6335660431285520e-04  8.6330825471181687e-04  8.6328398080613711e-04  8.6327222009402091e-04  8.6326704136392555e-04  1.7244826478688242e-03  1.7244723538414747e-03  8.6326014924381015e-04  8.6326014924381406e-04  8.6326014924382305e-04  8.6326014924383672e-04  8.6326014924385493e-04  8.6326014924387510e-04  8.6326014924389656e-04  8.6326014924391868e-04  8.6326014924393831e-04  8.6326014924395630e-04  8.6326014924397202e-04  8.6326014924398308e-04  8.6326014924399024e-04  8.6326014924399533e-04  8.6326014924399523e-04  8.6326014924399024e-04  8.6326014924398493e-04  8.6326014924397669e-04  8.6326014924396780e-04  8.6326014924396487e-04  8.6326014924396834e-04  8.6326014924398395e-04  8.6326014924402342e-04  8.6326014924409270e-04  8.6326014924420448e-04  8.6326014924437697e-04  8.6326014924462775e-04  8.6326014924498163e-04  8.6326014924545933e-04  8.6326014924608990e-04  8.6326014924691065e-04  8.6326014924795365e-04  8.6326014924925664e-04  8.6326014925086061e-04  8.6326014925280155e-04  8.6326014925512131e-04  8.6326014925786759e-04  8.6326014926108182e-04  8.6326014926480887e-04  8.6326014926909624e-04  8.6326014927398513e-04  8.6326014927952160e-04  8.6326014928575783e-04  8.6326014929273998e-04  8.6326014930051870e-04  8.6326014930915144e-04  8.6326014931869502e-04  8.6326014932922327e-04  8.6326014934083812e-04  8.6326014935368114e-04  8.6326014936799630e-04  8.6326014938424350e-04  8.6326014940335744e-04  8.6326014942731538e-04  8.6326014946039276e-04  8.6326014951193237e-04  8.6326014960241208e-04  8.6326014977687084e-04  8.6326015013439095e-04  8.6326015089292253e-04  8.6326015253186802e-04  8.6326015610536434e-04  8.6326016393033819e-04  8.6326018109660074e-04  8.6326021877805689e-04  8.6326030148439889e-04  8.6326048291634041e-04  8.6326088055355111e-04  8.6326175087426244e-04  8.6326365224233606e-04  8.6326779556120396e-04  8.6327679293714808e-04  8.6329623748595467e-04  8.6333798068255593e-04  8.6342675934042239e-04  8.6361306308014208e-04  8.6399643064024798e-04  8.6476193204515798e-04  8.6621246063144943e-04  8.6868773137591679e-04  8.7214314811161187e-04  8.7558359431716306e-04  8.7745937441739328e-04  8.7764163550849183e-04  1.3273323009629539e-03  1.7829003630195394e-03  1.3206709903703306e-03  8.7163950920427814e-04  8.6905070964977244e-04  8.6707896481735824e-04  8.6554311998468536e-04  8.6450283607509616e-04  8.6389972636974420e-04  8.6357852453286771e-04  8.6341546939788978e-04  8.6333510136487853e-04  8.6329630893171685e-04  8.6327807228723705e-04  8.6327019995673516e-04  1.7244872957111416e-03  1.7244723538415540e-03  8.6326014924384452e-04  8.6326014924384257e-04  8.6326014924384680e-04  8.6326014924385753e-04  8.6326014924387325e-04  8.6326014924389093e-04  8.6326014924390990e-04  8.6326014924392844e-04  8.6326014924394362e-04  8.6326014924395663e-04  8.6326014924396595e-04  8.6326014924397007e-04  8.6326014924396942e-04  8.6326014924396595e-04  8.6326014924395760e-04  8.6326014924394492e-04  8.6326014924393278e-04  8.6326014924392063e-04  8.6326014924391153e-04  8.6326014924391348e-04  8.6326014924393017e-04  8.6326014924396986e-04  8.6326014924404727e-04  8.6326014924417347e-04  8.6326014924436591e-04  8.6326014924464900e-04  8.6326014924504669e-04  8.6326014924559117e-04  8.6326014924631076e-04  8.6326014924724133e-04  8.6326014924842560e-04  8.6326014924990022e-04  8.6326014925170434e-04  8.6326014925387827e-04  8.6326014925645423e-04  8.6326014925946755e-04  8.6326014926295684e-04  8.6326014926695299e-04  8.6326014927148799e-04  8.6326014927659610e-04  8.6326014928230378e-04  8.6326014928864180e-04  8.6326014929564662e-04  8.6326014930334836e-04  8.6326014931178367e-04  8.6326014932099743e-04  8.6326014933103866e-04  8.6326014934197837e-04  8.6326014935392498e-04  8.6326014936704437e-04  8.6326014938164055e-04  8.6326014939831189e-04  8.6326014941830349e-04  8.6326014944428813e-04  8.6326014948209296e-04  8.6326014954452219e-04  8.6326014965977093e-04  8.6326014989007477e-04  8.6326015037284213e-04  8.6326015141145892e-04  8.6326015367587891e-04  8.6326015864556806e-04  8.6326016958787480e-04  8.6326019371940469e-04  8.6326024698176775e-04  8.6326036459568104e-04  8.6326062438646899e-04  8.6326119833005457e-04  8.6326246641760945e-04  8.6326526797263681e-04  8.6327145551995410e-04  8.6328511242303224e-04  8.6331521921731392e-04  8.6338145601978214e-04  8.6352670533461524e-04  8.6384355938233189e-04  8.6452891895718838e-04  8.6598869397973288e-04  8.6895436807953616e-04  8.7416620348648700e-04  8.8120514403335114e-04  1.3495659100564625e-03  1.8326814319532666e-03  1.8222122353748417e-03  2.7617460625259738e-03  9.5407155749615957e-01  9.5022417592267006e-01  2.6971065562510291e-03  1.7613910802135977e-03  1.3091143636940776e-03  8.6741490065672796e-04  8.6544759451284898e-04  8.6432033431482584e-04  8.6376226274049485e-04  8.6349615999525820e-04  8.6337100445268013e-04  8.6331261200920328e-04  8.6328580372310379e-04  8.6327439611632868e-04  1.7244935051720950e-03  1.7244723538416564e-03  8.6326014924388843e-04  8.6326014924387705e-04  8.6326014924387390e-04  8.6326014924387922e-04  8.6326014924389114e-04  8.6326014924390535e-04  8.6326014924392085e-04  8.6326014924393592e-04  8.6326014924394709e-04  8.6326014924395544e-04  8.6326014924396031e-04  8.6326014924395901e-04  8.6326014924395348e-04  8.6326014924394535e-04  8.6326014924393299e-04  8.6326014924391781e-04  8.6326014924390567e-04  8.6326014924389721e-04  8.6326014924389700e-04  8.6326014924391619e-04  8.63260149243