<?xml version="1.0"?>
<VTKFile type="UnstructuredGrid"  version="0.1"  >
<UnstructuredGrid>
<Piece  NumberOfPoints="5151" NumberOfCells="10000">
<Points>
<DataArray  type="Float64"  NumberOfComponents="3"  format="ascii">0 0 0  0.02 0 0  0.04 0 0  0.06 0 0  0.08 0 0  0.1 0 0  0.12 0 0  0.14 0 0  0.16 0 0  0.18 0 0  0.2 0 0  0.22 0 0  0.24 0 0  0.26 0 0  0.28 0 0  0.3 0 0  0.32 0 0  0.34 0 0  0.36 0 0  0.38 0 0  0.4 0 0  0.42 0 0  0.44 0 0  0.46 0 0  0.48 0 0  0.5 0 0  0.52 0 0  0.54 0 0  0.5600000000000001 0 0  0.58 0 0  0.6 0 0  0.62 0 0  0.64 0 0  0.66 0 0  0.68 0 0  0.7 0 0  0.72 0 0  0.74 0 0  0.76 0 0  0.78 0 0  0.8 0 0  0.82 0 0  0.84 0 0  0.86 0 0  0.88 0 0  0.9 0 0  0.92 0 0  0.9399999999999999 0 0  0.96 0 0  0.98 0 0  1 0 0  1.02 0 0  1.04 0 0  1.06 0 0  1.08 0 0  1.1 0 0  1.12 0 0  1.14 0 0  1.16 0 0  1.18 0 0  1.2 0 0  1.22 0 0  1.24 0 0  1.26 0 0  1.28 0 0  1.3 0 0  1.32 0 0  1.34 0 0  1.36 0 0  1.38 0 0  1.4 0 0  1.42 0 0  1.44 0 0  1.46 0 0  1.48 0 0  1.5 0 0  1.52 0 0  1.54 0 0  1.56 0 0  1.58 0 0  1.6 0 0  1.62 0 0  1.64 0 0  1.66 0 0  1.68 0 0  1.7 0 0  1.72 0 0  1.74 0 0  1.76 0 0  1.78 0 0  1.8 0 0  1.82 0 0  1.84 0 0  1.86 0 0  1.88 0 0  1.9 0 0  1.92 0 0  1.94 0 0  1.96 0 0  1.98 0 0  2 0 0  0 0.02 0  0.02 0.02 0  0.04 0.02 0  0.06 0.02 0  0.08 0.02 0  0.1 0.02 0  0.12 0.02 0  0.14 0.02 0  0.16 0.02 0  0.18 0.02 0  0.2 0.02 0  0.22 0.02 0  0.24 0.02 0  0.26 0.02 0  0.28 0.02 0  0.3 0.02 0  0.32 0.02 0  0.34 0.02 0  0.36 0.02 0  0.38 0.02 0  0.4 0.02 0  0.42 0.02 0  0.44 0.02 0  0.46 0.02 0  0.48 0.02 0  0.5 0.02 0  0.52 0.02 0  0.54 0.02 0  0.5600000000000001 0.02 0  0.58 0.02 0  0.6 0.02 0  0.62 0.02 0  0.64 0.02 0  0.66 0.02 0  0.68 0.02 0  0.7 0.02 0  0.72 0.02 0  0.74 0.02 0  0.76 0.02 0  0.78 0.02 0  0.8 0.02 0  0.82 0.02 0  0.84 0.02 0  0.86 0.02 0  0.88 0.02 0  0.9 0.02 0  0.92 0.02 0  0.9399999999999999 0.02 0  0.96 0.02 0  0.98 0.02 0  1 0.02 0  1.02 0.02 0  1.04 0.02 0  1.06 0.02 0  1.08 0.02 0  1.1 0.02 0  1.12 0.02 0  1.14 0.02 0  1.16 0.02 0  1.18 0.02 0  1.2 0.02 0  1.22 0.02 0  1.24 0.02 0  1.26 0.02 0  1.28 0.02 0  1.3 0.02 0  1.32 0.02 0  1.34 0.02 0  1.36 0.02 0  1.38 0.02 0  1.4 0.02 0  1.42 0.02 0  1.44 0.02 0  1.46 0.02 0  1.48 0.02 0  1.5 0.02 0  1.52 0.02 0  1.54 0.02 0  1.56 0.02 0  1.58 0.02 0  1.6 0.02 0  1.62 0.02 0  1.64 0.02 0  1.66 0.02 0  1.68 0.02 0  1.7 0.02 0  1.72 0.02 0  1.74 0.02 0  1.76 0.02 0  1.78 0.02 0  1.8 0.02 0  1.82 0.02 0  1.84 0.02 0  1.86 0.02 0  1.88 0.02 0  1.9 0.02 0  1.92 0.02 0  1.94 0.02 0  1.96 0.02 0  1.98 0.02 0  2 0.02 0  0 0.04 0  0.02 0.04 0  0.04 0.04 0  0.06 0.04 0  0.08 0.04 0  0.1 0.04 0  0.12 0.04 0  0.14 0.04 0  0.16 0.04 0  0.18 0.04 0  0.2 0.04 0  0.22 0.04 0  0.24 0.04 0  0.26 0.04 0  0.28 0.04 0  0.3 0.04 0  0.32 0.04 0  0.34 0.04 0  0.36 0.04 0  0.38 0.04 0  0.4 0.04 0  0.42 0.04 0  0.44 0.04 0  0.46 0.04 0  0.48 0.04 0  0.5 0.04 0  0.52 0.04 0  0.54 0.04 0  0.5600000000000001 0.04 0  0.58 0.04 0  0.6 0.04 0  0.62 0.04 0  0.64 0.04 0  0.66 0.04 0  0.68 0.04 0  0.7 0.04 0  0.72 0.04 0  0.74 0.04 0  0.76 0.04 0  0.78 0.04 0  0.8 0.04 0  0.82 0.04 0  0.84 0.04 0  0.86 0.04 0  0.88 0.04 0  0.9 0.04 0  0.92 0.04 0  0.9399999999999999 0.04 0  0.96 0.04 0  0.98 0.04 0  1 0.04 0  1.02 0.04 0  1.04 0.04 0  1.06 0.04 0  1.08 0.04 0  1.1 0.04 0  1.12 0.04 0  1.14 0.04 0  1.16 0.04 0  1.18 0.04 0  1.2 0.04 0  1.22 0.04 0  1.24 0.04 0  1.26 0.04 0  1.28 0.04 0  1.3 0.04 0  1.32 0.04 0  1.34 0.04 0  1.36 0.04 0  1.38 0.04 0  1.4 0.04 0  1.42 0.04 0  1.44 0.04 0  1.46 0.04 0  1.48 0.04 0  1.5 0.04 0  1.52 0.04 0  1.54 0.04 0  1.56 0.04 0  1.58 0.04 0  1.6 0.04 0  1.62 0.04 0  1.64 0.04 0  1.66 0.04 0  1.68 0.04 0  1.7 0.04 0  1.72 0.04 0  1.74 0.04 0  1.76 0.04 0  1.78 0.04 0  1.8 0.04 0  1.82 0.04 0  1.84 0.04 0  1.86 0.04 0  1.88 0.04 0  1.9 0.04 0  1.92 0.04 0  1.94 0.04 0  1.96 0.04 0  1.98 0.04 0  2 0.04 0  0 0.06 0  0.02 0.06 0  0.04 0.06 0  0.06 0.06 0  0.08 0.06 0  0.1 0.06 0  0.12 0.06 0  0.14 0.06 0  0.16 0.06 0  0.18 0.06 0  0.2 0.06 0  0.22 0.06 0  0.24 0.06 0  0.26 0.06 0  0.28 0.06 0  0.3 0.06 0  0.32 0.06 0  0.34 0.06 0  0.36 0.06 0  0.38 0.06 0  0.4 0.06 0  0.42 0.06 0  0.44 0.06 0  0.46 0.06 0  0.48 0.06 0  0.5 0.06 0  0.52 0.06 0  0.54 0.06 0  0.5600000000000001 0.06 0  0.58 0.06 0  0.6 0.06 0  0.62 0.06 0  0.64 0.06 0  0.66 0.06 0  0.68 0.06 0  0.7 0.06 0  0.72 0.06 0  0.74 0.06 0  0.76 0.06 0  0.78 0.06 0  0.8 0.06 0  0.82 0.06 0  0.84 0.06 0  0.86 0.06 0  0.88 0.06 0  0.9 0.06 0  0.92 0.06 0  0.9399999999999999 0.06 0  0.96 0.06 0  0.98 0.06 0  1 0.06 0  1.02 0.06 0  1.04 0.06 0  1.06 0.06 0  1.08 0.06 0  1.1 0.06 0  1.12 0.06 0  1.14 0.06 0  1.16 0.06 0  1.18 0.06 0  1.2 0.06 0  1.22 0.06 0  1.24 0.06 0  1.26 0.06 0  1.28 0.06 0  1.3 0.06 0  1.32 0.06 0  1.34 0.06 0  1.36 0.06 0  1.38 0.06 0  1.4 0.06 0  1.42 0.06 0  1.44 0.06 0  1.46 0.06 0  1.48 0.06 0  1.5 0.06 0  1.52 0.06 0  1.54 0.06 0  1.56 0.06 0  1.58 0.06 0  1.6 0.06 0  1.62 0.06 0  1.64 0.06 0  1.66 0.06 0  1.68 0.06 0  1.7 0.06 0  1.72 0.06 0  1.74 0.06 0  1.76 0.06 0  1.78 0.06 0  1.8 0.06 0  1.82 0.06 0  1.84 0.06 0  1.86 0.06 0  1.88 0.06 0  1.9 0.06 0  1.92 0.06 0  1.94 0.06 0  1.96 0.06 0  1.98 0.06 0  2 0.06 0  0 0.08 0  0.02 0.08 0  0.04 0.08 0  0.06 0.08 0  0.08 0.08 0  0.1 0.08 0  0.12 0.08 0  0.14 0.08 0  0.16 0.08 0  0.18 0.08 0  0.2 0.08 0  0.22 0.08 0  0.24 0.08 0  0.26 0.08 0  0.28 0.08 0  0.3 0.08 0  0.32 0.08 0  0.34 0.08 0  0.36 0.08 0  0.38 0.08 0  0.4 0.08 0  0.42 0.08 0  0.44 0.08 0  0.46 0.08 0  0.48 0.08 0  0.5 0.08 0  0.52 0.08 0  0.54 0.08 0  0.5600000000000001 0.08 0  0.58 0.08 0  0.6 0.08 0  0.62 0.08 0  0.64 0.08 0  0.66 0.08 0  0.68 0.08 0  0.7 0.08 0  0.72 0.08 0  0.74 0.08 0  0.76 0.08 0  0.78 0.08 0  0.8 0.08 0  0.82 0.08 0  0.84 0.08 0  0.86 0.08 0  0.88 0.08 0  0.9 0.08 0  0.92 0.08 0  0.9399999999999999 0.08 0  0.96 0.08 0  0.98 0.08 0  1 0.08 0  1.02 0.08 0  1.04 0.08 0  1.06 0.08 0  1.08 0.08 0  1.1 0.08 0  1.12 0.08 0  1.14 0.08 0  1.16 0.08 0  1.18 0.08 0  1.2 0.08 0  1.22 0.08 0  1.24 0.08 0  1.26 0.08 0  1.28 0.08 0  1.3 0.08 0  1.32 0.08 0  1.34 0.08 0  1.36 0.08 0  1.38 0.08 0  1.4 0.08 0  1.42 0.08 0  1.44 0.08 0  1.46 0.08 0  1.48 0.08 0  1.5 0.08 0  1.52 0.08 0  1.54 0.08 0  1.56 0.08 0  1.58 0.08 0  1.6 0.08 0  1.62 0.08 0  1.64 0.08 0  1.66 0.08 0  1.68 0.08 0  1.7 0.08 0  1.72 0.08 0  1.74 0.08 0  1.76 0.08 0  1.78 0.08 0  1.8 0.08 0  1.82 0.08 0  1.84 0.08 0  1.86 0.08 0  1.88 0.08 0  1.9 0.08 0  1.92 0.08 0  1.94 0.08 0  1.96 0.08 0  1.98 0.08 0  2 0.08 0  0 0.1 0  0.02 0.1 0  0.04 0.1 0  0.06 0.1 0  0.08 0.1 0  0.1 0.1 0  0.12 0.1 0  0.14 0.1 0  0.16 0.1 0  0.18 0.1 0  0.2 0.1 0  0.22 0.1 0  0.24 0.1 0  0.26 0.1 0  0.28 0.1 0  0.3 0.1 0  0.32 0.1 0  0.34 0.1 0  0.36 0.1 0  0.38 0.1 0  0.4 0.1 0  0.42 0.1 0  0.44 0.1 0  0.46 0.1 0  0.48 0.1 0  0.5 0.1 0  0.52 0.1 0  0.54 0.1 0  0.5600000000000001 0.1 0  0.58 0.1 0  0.6 0.1 0  0.62 0.1 0  0.64 0.1 0  0.66 0.1 0  0.68 0.1 0  0.7 0.1 0  0.72 0.1 0  0.74 0.1 0  0.76 0.1 0  0.78 0.1 0  0.8 0.1 0  0.82 0.1 0  0.84 0.1 0  0.86 0.1 0  0.88 0.1 0  0.9 0.1 0  0.92 0.1 0  0.9399999999999999 0.1 0  0.96 0.1 0  0.98 0.1 0  1 0.1 0  1.02 0.1 0  1.04 0.1 0  1.06 0.1 0  1.08 0.1 0  1.1 0.1 0  1.12 0.1 0  1.14 0.1 0  1.16 0.1 0  1.18 0.1 0  1.2 0.1 0  1.22 0.1 0  1.24 0.1 0  1.26 0.1 0  1.28 0.1 0  1.3 0.1 0  1.32 0.1 0  1.34 0.1 0  1.36 0.1 0  1.38 0.1 0  1.4 0.1 0  1.42 0.1 0  1.44 0.1 0  1.46 0.1 0  1.48 0.1 0  1.5 0.1 0  1.52 0.1 0  1.54 0.1 0  1.56 0.1 0  1.58 0.1 0  1.6 0.1 0  1.62 0.1 0  1.64 0.1 0  1.66 0.1 0  1.68 0.1 0  1.7 0.1 0  1.72 0.1 0  1.74 0.1 0  1.76 0.1 0  1.78 0.1 0  1.8 0.1 0  1.82 0.1 0  1.84 0.1 0  1.86 0.1 0  1.88 0.1 0  1.9 0.1 0  1.92 0.1 0  1.94 0.1 0  1.96 0.1 0  1.98 0.1 0  2 0.1 0  0 0.12 0  0.02 0.12 0  0.04 0.12 0  0.06 0.12 0  0.08 0.12 0  0.1 0.12 0  0.12 0.12 0  0.14 0.12 0  0.16 0.12 0  0.18 0.12 0  0.2 0.12 0  0.22 0.12 0  0.24 0.12 0  0.26 0.12 0  0.28 0.12 0  0.3 0.12 0  0.32 0.12 0  0.34 0.12 0  0.36 0.12 0  0.38 0.12 0  0.4 0.12 0  0.42 0.12 0  0.44 0.12 0  0.46 0.12 0  0.48 0.12 0  0.5 0.12 0  0.52 0.12 0  0.54 0.12 0  0.5600000000000001 0.12 0  0.58 0.12 0  0.6 0.12 0  0.62 0.12 0  0.64 0.12 0  0.66 0.12 0  0.68 0.12 0  0.7 0.12 0  0.72 0.12 0  0.74 0.12 0  0.76 0.12 0  0.78 0.12 0  0.8 0.12 0  0.82 0.12 0  0.84 0.12 0  0.86 0.12 0  0.88 0.12 0  0.9 0.12 0  0.92 0.12 0  0.9399999999999999 0.12 0  0.96 0.12 0  0.98 0.12 0  1 0.12 0  1.02 0.12 0  1.04 0.12 0  1.06 0.12 0  1.08 0.12 0  1.1 0.12 0  1.12 0.12 0  1.14 0.12 0  1.16 0.12 0  1.18 0.12 0  1.2 0.12 0  1.22 0.12 0  1.24 0.12 0  1.26 0.12 0  1.28 0.12 0  1.3 0.12 0  1.32 0.12 0  1.34 0.12 0  1.36 0.12 0  1.38 0.12 0  1.4 0.12 0  1.42 0.12 0  1.44 0.12 0  1.46 0.12 0  1.48 0.12 0  1.5 0.12 0  1.52 0.12 0  1.54 0.12 0  1.56 0.12 0  1.58 0.12 0  1.6 0.12 0  1.62 0.12 0  1.64 0.12 0  1.66 0.12 0  1.68 0.12 0  1.7 0.12 0  1.72 0.12 0  1.74 0.12 0  1.76 0.12 0  1.78 0.12 0  1.8 0.12 0  1.82 0.12 0  1.84 0.12 0  1.86 0.12 0  1.88 0.12 0  1.9 0.12 0  1.92 0.12 0  1.94 0.12 0  1.96 0.12 0  1.98 0.12 0  2 0.12 0  0 0.14 0  0.02 0.14 0  0.04 0.14 0  0.06 0.14 0  0.08 0.14 0  0.1 0.14 0  0.12 0.14 0  0.14 0.14 0  0.16 0.14 0  0.18 0.14 0  0.2 0.14 0  0.22 0.14 0  0.24 0.14 0  0.26 0.14 0  0.28 0.14 0  0.3 0.14 0  0.32 0.14 0  0.34 0.14 0  0.36 0.14 0  0.38 0.14 0  0.4 0.14 0  0.42 0.14 0  0.44 0.14 0  0.46 0.14 0  0.48 0.14 0  0.5 0.14 0  0.52 0.14 0  0.54 0.14 0  0.5600000000000001 0.14 0  0.58 0.14 0  0.6 0.14 0  0.62 0.14 0  0.64 0.14 0  0.66 0.14 0  0.68 0.14 0  0.7 0.14 0  0.72 0.14 0  0.74 0.14 0  0.76 0.14 0  0.78 0.14 0  0.8 0.14 0  0.82 0.14 0  0.84 0.14 0  0.86 0.14 0  0.88 0.14 0  0.9 0.14 0  0.92 0.14 0  0.9399999999999999 0.14 0  0.96 0.14 0  0.98 0.14 0  1 0.14 0  1.02 0.14 0  1.04 0.14 0  1.06 0.14 0  1.08 0.14 0  1.1 0.14 0  1.12 0.14 0  1.14 0.14 0  1.16 0.14 0  1.18 0.14 0  1.2 0.14 0  1.22 0.14 0  1.24 0.14 0  1.26 0.14 0  1.28 0.14 0  1.3 0.14 0  1.32 0.14 0  1.34 0.14 0  1.36 0.14 0  1.38 0.14 0  1.4 0.14 0  1.42 0.14 0  1.44 0.14 0  1.46 0.14 0  1.48 0.14 0  1
[...]
<PointData  Scalars="sols[i]"> 
<DataArray  type="Float64"  Name="sols[i]"  format="ascii">2.9765579974173073e-01  2.2651718901950446e-01  2.2651760941469881e-01  2.2651837567444466e-01  2.2651962529291833e-01  2.2652153302788236e-01  2.2652430165492868e-01  2.2652814323420517e-01  2.2653325593964183e-01  2.2653980055795103e-01  2.2654787877902532e-01  2.2655751403368224e-01  2.2656863508106201e-01  2.2658106257167643e-01  2.2659449918677882e-01  2.2660852454022976e-01  2.2662259674990445e-01  2.2663606340006820e-01  2.2664818549237425e-01  2.2665817888259027e-01  2.2666527856276725e-01  2.2666883187757281e-01  2.2666842720770675e-01  2.2666406458692562e-01  2.2665637382249815e-01  2.2664688353775847e-01  2.2663834063498353e-01  2.2663507343814213e-01  2.2664338274921808e-01  2.2667193301193728e-01  2.2673210088428461e-01  2.2683822131918924e-01  2.2700765232433423e-01  2.2726055878567397e-01  2.2761929139683706e-01  2.2810720546679081e-01  2.2874672226000006e-01  2.2955637942499924e-01  2.3054655133187579e-01  2.3171349812469061e-01  2.3303163066320123e-01  2.3444484284305761e-01  2.3586012117437677e-01  2.3715197934278684e-01  2.3819143562742995e-01  2.3889932336788239e-01  2.3928571248430203e-01  2.3943689350216166e-01  2.3948293246759547e-01  2.3955951626040797e-01  2.3975776775589658e-01  2.4007041135149873e-01  2.4039067434614286e-01  2.4056209326754163e-01  2.4042789733090161e-01  2.3987276717701828e-01  2.3886417011813449e-01  2.3746936048292663e-01  2.3583070210480112e-01  2.3411666442449580e-01  2.3247715335139060e-01  2.3101911708670647e-01  2.2980214601581769e-01  2.2884592633155082e-01  2.2814159800869371e-01  2.2766241054465397e-01  2.2737205247063674e-01  2.2723062937564908e-01  2.2719878020724904e-01  2.2724041256808003e-01  2.2732439219446066e-01  2.2742540845790216e-01  2.2752418661687479e-01  2.2760720416044428e-01  2.2766606406550324e-01  2.2769666660075386e-01  2.2769830051393580e-01  2.2767274744942578e-01  2.2762346498266681e-01  2.2755488740636071e-01  2.2747186151430260e-01  2.2737921798745148e-01  2.2728146759383708e-01  2.2718260470574458e-01  2.2708599773885571e-01  2.2699434604354701e-01  2.2690968458570754e-01  2.2683342064251463e-01  2.2676639009360700e-01  2.2670892428320227e-01  2.2666092159230652e-01  2.2662192062285955e-01  2.2659117412514918e-01  2.2656772433282013e-01  2.2655048096344738e-01  2.2653830250461854e-01  2.2653007942899356e-01  2.2652481533426866e-01  2.2652170059751783e-01  2.2652017257837731e-01  3.9807888740865893e-01  2.2651718631444662e-01  1.2611697383848308e-01  1.2611733127350960e-01  1.2611798179383119e-01  1.2611901508109727e-01  1.2612053918161259e-01  1.2612267667551075e-01  1.2612555605663112e-01  1.2612929904109532e-01  1.2613400610474149e-01  1.2613974209659262e-01  1.2614652297407211e-01  1.2615430418841395e-01  1.2616297110154925e-01  1.2617233195574995e-01  1.2618211425181225e-01  1.2619196585522285e-01  1.2620146270056970e-01  1.2621012557082673e-01  1.2621744905666216e-01  1.2622294640422299e-01  1.2622621446555790e-01  1.2622702326331631e-01  1.2622543460851426e-01  1.2622195354075916e-01  1.2621771479776631e-01  1.2621470370600843e-01  1.2621600642688333e-01  1.2622607803333322e-01  1.2625100818635676e-01  1.2629875318180286e-01  1.2637929002587822e-01  1.2650463332168438e-01  1.2668863948329429e-01  1.2694650544271197e-01  1.2729385106040986e-01  1.2774525733532582e-01  1.2831211891845634e-01  1.2899966224739942e-01  1.2980299598377806e-01  1.3070219340801706e-01  1.3165691670997023e-01  1.3260234684931360e-01  1.3345199894195450e-01  1.3411792156312280e-01  1.3454818578546646e-01  1.3475417927917765e-01  1.3479984499724990e-01  1.3477898761511317e-01  1.3479327169783029e-01  1.3491925626021717e-01  1.3516667244944258e-01  1.3546880736260924e-01  1.3571414046391700e-01  1.3578168556678166e-01  1.3557105710688100e-01  1.3503449879650914e-01  1.3419569101291620e-01  1.3313908451411471e-01  1.3197878005766892e-01  1.3082580435208288e-01  1.2976658860527723e-01  1.2885536434355799e-01  1.2811656481396991e-01  1.2755179742407841e-01  1.2714748016571448e-01  1.2688130484824420e-01  1.2672707271742470e-01  1.2665805796261248e-01  1.2664921365973825e-01  1.2667851409592562e-01  1.2672766081624770e-01  1.2678231874975010e-01  1.2683200850196316e-01  1.2686975852047103e-01  1.2689160699638533e-01  1.2689603052879100e-01  1.2688336187802188e-01  1.2685524303386983e-01  1.2681414396021398e-01  1.2676296323818906e-01  1.2670471534193783e-01  1.2664230081247696e-01  1.2657835008064761e-01  1.2651512876662324e-01  1.2645449142132417e-01  1.2639787129273633e-01  1.2634629525322530e-01  1.2630041505971240e-01  1.2626054829537425e-01  1.2622672441996047e-01  1.2619873316888355e-01  1.2617617395404007e-01  1.2615850578927681e-01  1.2614509743102209e-01  1.2613527680205594e-01  1.2612837765812415e-01  1.2612378121391027e-01  1.2612095366533349e-01  1.2611948275816259e-01  2.2652015419894103e-01  2.2651759769191501e-01  1.2611732378151255e-01  1.2611785075805620e-01  1.2611876084612844e-01  1.2612011946985657e-01  1.2612199055841539e-01  1.2612443463221440e-01  1.2612750864520891e-01  1.2613126227838245e-01  1.2613573051895380e-01  1.2614092425169010e-01  1.2614682061521348e-01  1.2615335444020440e-01  1.2616041176233517e-01  1.2616782631747703e-01  1.2617538005070211e-01  1.2618280894206210e-01  1.2618981581428662e-01  1.2619609219248057e-01  1.2620135168791927e-01  1.2620537772425128e-01  1.2620808864428468e-01  1.2620962322905982e-01  1.2621044928562142e-01  1.2621149701795292e-01  1.2621431712538217e-01  1.2622126065302150e-01  1.2623567319631315e-01  1.2626208981574427e-01  1.2630640876933164e-01  1.2637601203240165e-01  1.2647978911052804e-01  1.2662800897109833e-01  1.2683197456807779e-01  1.2710338695738166e-01  1.2745334233883995e-01  1.2789088606555946e-01  1.2842105479654481e-01  1.2904235388265148e-01  1.2974363426643240e-01  1.3050036970699580e-01  1.3127057919740862e-01  1.3199137647055786e-01  1.3258273353557687e-01  1.3297335475175714e-01  1.3314297928312233e-01  1.3313815494915279e-01  1.3303691820418506e-01  1.3292464317601835e-01  1.3289217628566272e-01  1.3301327741055022e-01  1.3330138325230123e-01  1.3369885084604147e-01  1.3410444013884706e-01  1.3440005291851317e-01  1.3447474576474117e-01  1.3425741487715609e-01  1.3374291810405831e-01  1.3298609012970639e-01  1.3207649646355474e-01  1.3111093451461139e-01  1.3017294671182092e-01  1.2932247246845696e-01  1.2859432090073061e-01  1.2800195867695485e-01  1.2754324696981242e-01  1.2720602062395309e-01  1.2697261959344436e-01  1.2682321619044523e-01  1.2673809015750864e-01  1.2669907726458990e-01  1.2669039951572378e-01  1.2669904625506803e-01  1.2671483908354675e-01  1.2673028374307727e-01  1.2674028813293831e-01  1.2674180627851692e-01  1.2673345271229586e-01  1.2671511971125859e-01  1.2668762034618170e-01  1.2665237254575484e-01  1.2661113284879652e-01  1.2656578303504470e-01  1.2651816843360819e-01  1.2646998350217167e-01  1.2642269826889638e-01  1.2637751833321403e-01  1.2633537113068449e-01  1.2629691182469840e-01  1.2626254322622388e-01  1.2623244530943015e-01  1.2620661095502131e-01  1.2618488530037747e-01  1.2616700631542288e-01  1.2615264385531869e-01  1.2614143367615882e-01  1.2613300275403433e-01  1.2612698527976809e-01  1.2612303890917398e-01  1.2612088077174183e-01  2.2652159847210024e-01  2.2651834276600258e-01  1.2611795575275528e-01  1.2611874062033385e-01  1.2612001487734018e-01  1.2612180328975403e-01  1.2612411893576336e-01  1.2612695775608773e-01  1.2613030261065911e-01  1.2613412716018341e-01  1.2613839593582332e-01  1.2614306111291854e-01  1.2614805783098634e-01  1.2615329993166183e-01  1.2615867768969097e-01  1.2616405887975932e-01  1.2616929444697161e-01  1.2617423011022508e-01  1.2617872537210328e-01  1.2618268157894386e-01  1.2618608081389340e-01  1.2618903745477750e-01  1.2619186411765793e-01  1.2619515334618658e-01  1.2619987567545399e-01  1.2620749343427104e-01  1.2622008764065895e-01  1.2624049233738499e-01  1.2627242643928871e-01  1.2632060740794870e-01  1.2639082379976280e-01  1.2648993529950289e-01  1.2662576024286043e-01  1.2680680370820666e-01  1.2704177665799171e-01  1.2733886075599496e-01  1.2770468407227126e-01  1.2814298360577966e-01  1.2865292969450531e-01  1.2922706741133216e-01  1.2984877886683435e-01  1.3048902307874194e-01  1.3110196871079288e-01  1.3161946456692658e-01  1.3195559290088796e-01  1.3204645502504586e-01  1.3190483205552328e-01  1.3162771924185318e-01  1.3132469833432317e-01  1.3107612289695722e-01  1.3096635407131438e-01  1.3106814893541524e-01  1.3140496159571530e-01  1.3194373577996660e-01  1.3259748877060565e-01  1.3323631308847989e-01  1.3371135080922802e-01  1.3389279172979665e-01  1.3373249522312455e-01  1.3326444687909955e-01  1.3257195666896981e-01  1.3175331909795501e-01  1.3089769302367191e-01  1.3007317399500826e-01  1.2932435597887709e-01  1.2867527317006192e-01  1.2813433120866952e-01  1.2769923039702838e-01  1.2736103832221246e-01  1.2710723874210053e-01  1.2692387280536471e-01  1.2679696809047028e-01  1.2671344217015720e-01  1.2666163212980067e-01  1.2663156377187634e-01  1.2661504184711486e-01  1.2660561762467787e-01  1.2659847246438974e-01  1.2659024491207066e-01  1.2657882261700726e-01  1.2656311703278966e-01  1.2654283655539925e-01  1.2651827128990895e-01  1.2649009960447583e-01  1.2645922318439184e-01  1.2642663386189204e-01  1.2639331249596963e-01  1.2636015789315286e-01  1.2632794228985197e-01  1.2629728919103597e-01  1.2626866919866447e-01  1.2624240962648378e-01  1.2621871392676298e-01  1.2619768701149761e-01  1.2617936228759677e-01  1.2616372573771073e-01  1.2615073231026724e-01  1.2614031188459057e-01  1.2613236908873363e-01  1.2612679666232512e-01  1.2612353647741703e-01  2.2652451584456756e-01  2.2651954845983102e-01  1.2611894990774686e-01  1.2612005575661234e-01  1.2612175688673968e-01  1.2612401764012129e-01  1.2612679759834000e-01  1.2613003646685095e-01  1.2613365591666945e-01  1.2613756670647927e-01  1.2614167428139458e-01  1.2614588135628324e-01  1.2615008860186361e-01  1.2615419533611191e-01  1.2615810211336431e-01  1.2616171688672309e-01  1.2616496623141527e-01  1.2616781300855923e-01  1.2617028179368919e-01  1.2617249333913133e-01  1.2617470922354873e-01  1.2617738760236091e-01  1.2618125054063073e-01  1.2618736270534819e-01  1.2619722011854476e-01  1.2621284610353833e-01  1.2623688934552682e-01  1.2627271597161255e-01  1.2632448359058487e-01  1.2639718026929070e-01  1.2649660564332937e-01  1.2662926541785796e-01  1.2680214588052752e-01  1.2702233437859672e-01  1.2729645877815488e-01  1.2762993685068624e-01  1.2802605196941069e-01  1.2848488267564315e-01  1.2900205760457834e-01  1.2956711421485975e-01  1.3016090660256402e-01  1.3075111104591680e-01  1.3128440822773568e-01  1.3167321574408578e-01  1.3180292246739994e-01  1.3160897057087087e-01  1.3114585054032657e-01  1.3056989280458983e-01  1.3004184984324266e-01  1.8648678737330701e-01  2.3592217094052614e-01  2.3614813593959746e-01  2.3720470033723667e-01  1.8831632363787404e-01  1.3155078367018458e-01  1.3264033163532402e-01  1.3364382039384515e-01  1.3429627379812448e-01  1.3447266242902600e-01  1.3420416446090960e-01  1.3360738885944728e-01  1.3281632130003465e-01  1.3194402282086193e-01  1.3107120082688112e-01  1.3024910640815468e-01  1.2950679983785643e-01  1.2885805813371928e-01  1.2830659420597712e-01  1.2784966597698322e-01  1.2748050407327219e-01  1.2718995495834440e-01  1.2696762202345840e-01  1.2680268499378974e-01  1.2668450475527548e-01  1.2660307235576812e-01  1.2654933201082272e-01  1.2651539349067215e-01  1.2649464424090240e-01  1.2648177201948488e-01  1.2647271180378822e-01  1.2646453393020513e-01  1.2645529233163322e-01  1.2644385166246128e-01  1.2642971012516321e-01  1.2641283148839905e-01  1.2639349583889609e-01  1.2637217470560169e-01  1.2634943281151950e-01  1.2632585609123320e-01  1.2630200379501547e-01  1.2627838136151476e-01  1.2625543006498596e-01  1.2623352898637435e-01  1.2621300442658834e-01  1.2619414145237418e-01  1.2617719219498810e-01  1.2616237683955181e-01  1.2614987787175708e-01  1.2613983843899584e-01  1.2613239275307958e-01  1.2612776976257137e-01  2.2652936659841333e-01  2.2652137307721720e-01  1.2612040005099129e-01  1.2612184633619650e-01  1.2612398673965625e-01  1.2612670962377204e-01  1.2612991962982736e-01  1.2613350996683226e-01  1.2613735723167485e-01  1.2614132725749674e-01  1.2614528332045238e-01  1.2614909314106548e-01  1.2615263453001488e-01  1.2615580110292787e-01  1.2615850993703290e-01  1.2616071299753689e-01  1.2616241396879413e-01  1.2616369191578691e-01  1.2616473299074044e-01  1.2616587115143302e-01  1.2616763851577037e-01  1.2617082547893899e-01  1.2617654999996875e-01  1.2618633445590699e-01  1.2620218709189052e-01  1.2622668328850750e-01  1.2626303955149781e-01  1.2631517025282929e-01  1.2638771372916688e-01  1.2648601052787700e-01  1.2661601282511606e-01  1.2678410132526002e-01  1.2699678628639663e-01  1.2726027627672409e-01  1.2757991717402306e-01  1.2795953968133550e-01  1.2840080119765110e-01  1.2890262601656277e-01  1.2946070843589841e-01  1.3006648234271201e-01  1.3070368810329525e-01  1.3133917027867728e-01  1.3190481815529603e-01  1.3226541263111519e-01  1.3223383107510731e-01  1.3173736312246978e-01  1.3091455481254410e-01  1.8722713520937553e-01  2.3542499386694304e-01  3.0821182475895248e-01  5.0940177232580819e-01  5.0997153558923247e-01  5.1188778510811062e-01  5.1530691076231616e-01  3.1792844062538828e-01  1.9241777684871408e-01  1.3446728535343153e-01  1.3574638439815678e-01  1.3624331105406634e-01  1.3602600909628235e-01  1.3532424846638996e-01  1.3437070816755292e-01  1.3333130058240328e-01  1.3230337495575617e-01  1.3133744704673692e-01  1.3045756271550951e-01  1.2967408539919106e-01  1.2899026856746787e-01  1.2840522129436646e-01  1.2791516711760517e-01  1.2751405172868771e-01  1.2719399257174333e-01  1.2694575481553946e-01  1.2675928501021155e-01  1.2662426561900003e-01  1.2653063391105784e-01  1.2646901620963677e-01  1.2643104733426450e-01  1.2640956542028206e-01  1.2639868932124210e-01  1.2639379737126316e-01  1.2639143216885038e-01  1.2638915717301957e-01  1.2638538868309659e-01  1.2637922260857531e-01  1.2637027048596566e-01  1.2635851430806036e-01  1.2634418542620993e-01  1.2632766932355091e-01  1.2630943547526477e-01  1.2628998969664837e-01  1.2626984513340556e-01  1.2624950716709904e-01  1.2622946688177206e-01  1.2621019749621099e-01  1.2619214889196262e-01  1.2617573829691062e-01  1.2616134206765039e-01  1.2614930528426674e-01  1.2613999988373154e-01  1.2613396537699312e-01  2.2653678468180485e-01  2.2652399653405944e-01  1.2612240968730734e-01  1.2612415735536697e-01  1.2612668865745766e-01  1.2612981103216547e-01  1.2613337410342482e-01  1.2613723202331117e-01  1.2614122988302001e-01  1.2614520521650893e-01  1.2614899595289147e-01  1.2615244990377927e-01  1.2615543431225434e-01  1.2615784610164399e-01  1.2615962438358280e-01  1.2616076700630835e-01  1.2616135282129523e-01  1.2616157110978049e-01  1.2616175929976448e-01  1.2616244970620077e-01  1.2616442549727117e-01  1.2616878537148540e-01  1.2617701546748977e-01  1.2619106577055439e-01  1.2621342668874072e-01  1.2624719953115945e-01  1.2629615235184249e-01  1.2636475011305617e-01  1.2645814557277710e-01  1.2658211511073547e-01  1.2674292262628503e-01  1.2694709607331620e-01  1.2720110775705179e-01  1.2751096589930161e-01  1.2788175870447299e-01  1.2831725191605298e-01  1.2881972480641188e-01  1.2939028357575541e-01  1.3002969666282552e-01  1.3073874227308058e-01  1.3151387382259699e-01  1.3232782220147205e-01  1.3308310194704637e-01  1.3353285747330965e-01  1.3335066791443159e-01  1.3245718780941357e-01  1.8936425608593346e-01  3.1256815419741385e-01  5.0985262795626640e-01  5.0695743481971300e-01  5.0580963386598143e-01  5.0527027219990528e-01  5.0744472345968539e-01  5.0961978725211465e-01  5.1743262706188897e-01  5.2897684432763992e-01  2.5538356845232679e-01  1.3865216817063383e-01  1.3951600560351951e-01  1.3911204845817948e-01  1.3797430493550289e-01  1.3655914554338083e-01  1.3512922748582892e-01  1.3379597590257972e-01  1.3259152920614942e-01  1.3151708446379773e-01  1.3056592787171226e-01  1.2973151067691968e-01  1.2900877767496827e-01  1.2839320873980944e-01  1.2787957273707512e-01  1.2746111976734698e-01  1.2712935353749225e-01  1.2687428226046468e-01  1.2668496347703515e-01  1.2655015825858268e-01  1.2645895281799466e-01  1.2640126020716397e-01  1.2636816403078632e-01  1.2635210309250855e-01  1.2634691880488508e-01  1.2634779779645186e-01  1.2635114393421598e-01  1.2635441052987634e-01  1.2635591760731743e-01  1.2635467260345334e-01  1.2635020678937414e-01  1.2634243453016200e-01  1.2633153840815248e-01  1.2631788016990630e-01  1.2630193526117517e-01  1.2628424718527781e-01  1.2626539689436328e-01  1.2624598187673008e-01  1.2622659979871692e-01  1.2620783321340939e-01  1.2619023618022737e-01  1.2617433179681842e-01  1.2616064037242464e-01  1.2614976292036953e-01  1.2614252462800812e-01  2.2654749342750294e-01  2.2652760242506506e-01  1.2612508400013700e-01  1.2612703032046366e-01  1.2612983832562899e-01  1.2613324395876452e-01  1.2613704472180806e-01  1.2614106062834418e-01  1.2614511443844192e-01  1.2614902787321872e-01  1.2615262726985338e-01  1.2615575361175785e-01  1.2615827455460893e-01  1.2616009827979485e-01  1.2616119025624029e-01  1.2616159448338354e-01  1.2616146083042934e-01  1.2616107988548647e-01  1.2616092637173415e-01  1.2616171168673518e-01  1.2616444544459410e-01  1.2617050500347601e-01  1.2618171080078902e-01  1.2620040387047135e-01  1.2622952018918318e-01  1.2627265455105852e-01  1.2633410464438782e-01  1.2641888415821662e-01  1.2653269252002969e-01  1.2668182896646085e-01  1.2687304123431187e-01  1.2711330619155994e-01  1.2740955467351028e-01  1.2776838181665509e-01  1.2819583755918640e-01  1.2869748325395014e-01  1.2927903384028891e-01  1.2994802111302783e-01  1.3071670767167001e-01  1.3160490879094860e-01  1.3263561403271770e-01  1.3380188139899535e-01  1.3496315768241463e-01  1.3562704259760153e-01  1.3517609678351042e-01  1.9439107443380746e-01  3.1791828052512294e-01  5.1069539169262379e-01  5.0713176854925612e-01  5.0023455054208577e-01  5.0023455054318222e-01  5.0023455054466348e-01  5.0023455054255495e-01  5.0023455054560639e-01  5.0023455054551025e-01  5.1785685918307922e-01  5.4089714547834911e-01  2.7557375823424057e-01  1.4497766188854472e-01  1.4405464538857757e-01  1.4194143641863072e-01  1.3959938939026978e-01  1.3745366336509404e-01  1.3560864770817449e-01  1.3404081684485475e-01  1.3269832399316325e-01  1.3153715924694021e-01  1.3052834423354909e-01  1.2965499240523043e-01  1.2890724307999868e-01  1.2827794360182349e-01  1.2775982762858348e-01  1.2734412764712438e-01  1.2702028120278056e-01  1.2677632440426592e-01  1.2659960743639345e-01  1.2647756299712409e-01  1.2639836340307498e-01  1.2635139014676211e-01  1.2632750333882609e-01  1.2631913636009418e-01  1.2632025755149368e-01  1.2632624294804157e-01  1.2633369857212853e-01  1.2634026239340060e-01  1.2634440747390935e-01  1.2634526031055385e-01  1.2634244236368095e-01  1.2633593819622060e-01  1.2632599033720660e-01  1.2631301866989306e-01  1.2629756059441377e-01  1.2628022728777952e-01  1.2626167112260323e-01  1.2624256005353424e-01  1.2622355727581905e-01  1.2620530968795235e-01  1.2618845679888943e-01  1.2617367845058214e-01  1.2616178841255571e-01  1.2615381990201069e-01  2.2656221065948562e-01  2.2653235756971080e-01  1.2612851886548709e-01  1.2613050169598850e-01  1.2613340935176870e-01  1.2613693060173992e-01  1.2614081798562246e-01  1.2614486097136907e-01  1.2614886515003729e-01  1.2615264421459016e-01  1.2615602243044913e-01  1.2615884369354130e-01  1.2616098457800728e-01  1.2616237063294938e-01  1.2616299652791654e-01  1.2616295133043659e-01  1.2616245039096011e-01  1.2616187518093552e-01  1.2616182207209392e-01  1.2616316048326473e-01  1.2616710003711276e-01  1.2617526533067017e-01  1.26189775607