<?xml version="1.0"?>
<VTKFile type="UnstructuredGrid"  version="0.1"  >
<UnstructuredGrid>
<Piece  NumberOfPoints="5151" NumberOfCells="10000">
<Points>
<DataArray  type="Float64"  NumberOfComponents="3"  format="ascii">0 0 0  0.02 0 0  0.04 0 0  0.06 0 0  0.08 0 0  0.1 0 0  0.12 0 0  0.14 0 0  0.16 0 0  0.18 0 0  0.2 0 0  0.22 0 0  0.24 0 0  0.26 0 0  0.28 0 0  0.3 0 0  0.32 0 0  0.34 0 0  0.36 0 0  0.38 0 0  0.4 0 0  0.42 0 0  0.44 0 0  0.46 0 0  0.48 0 0  0.5 0 0  0.52 0 0  0.54 0 0  0.5600000000000001 0 0  0.58 0 0  0.6 0 0  0.62 0 0  0.64 0 0  0.66 0 0  0.68 0 0  0.7 0 0  0.72 0 0  0.74 0 0  0.76 0 0  0.78 0 0  0.8 0 0  0.82 0 0  0.84 0 0  0.86 0 0  0.88 0 0  0.9 0 0  0.92 0 0  0.9399999999999999 0 0  0.96 0 0  0.98 0 0  1 0 0  1.02 0 0  1.04 0 0  1.06 0 0  1.08 0 0  1.1 0 0  1.12 0 0  1.14 0 0  1.16 0 0  1.18 0 0  1.2 0 0  1.22 0 0  1.24 0 0  1.26 0 0  1.28 0 0  1.3 0 0  1.32 0 0  1.34 0 0  1.36 0 0  1.38 0 0  1.4 0 0  1.42 0 0  1.44 0 0  1.46 0 0  1.48 0 0  1.5 0 0  1.52 0 0  1.54 0 0  1.56 0 0  1.58 0 0  1.6 0 0  1.62 0 0  1.64 0 0  1.66 0 0  1.68 0 0  1.7 0 0  1.72 0 0  1.74 0 0  1.76 0 0  1.78 0 0  1.8 0 0  1.82 0 0  1.84 0 0  1.86 0 0  1.88 0 0  1.9 0 0  1.92 0 0  1.94 0 0  1.96 0 0  1.98 0 0  2 0 0  0 0.02 0  0.02 0.02 0  0.04 0.02 0  0.06 0.02 0  0.08 0.02 0  0.1 0.02 0  0.12 0.02 0  0.14 0.02 0  0.16 0.02 0  0.18 0.02 0  0.2 0.02 0  0.22 0.02 0  0.24 0.02 0  0.26 0.02 0  0.28 0.02 0  0.3 0.02 0  0.32 0.02 0  0.34 0.02 0  0.36 0.02 0  0.38 0.02 0  0.4 0.02 0  0.42 0.02 0  0.44 0.02 0  0.46 0.02 0  0.48 0.02 0  0.5 0.02 0  0.52 0.02 0  0.54 0.02 0  0.5600000000000001 0.02 0  0.58 0.02 0  0.6 0.02 0  0.62 0.02 0  0.64 0.02 0  0.66 0.02 0  0.68 0.02 0  0.7 0.02 0  0.72 0.02 0  0.74 0.02 0  0.76 0.02 0  0.78 0.02 0  0.8 0.02 0  0.82 0.02 0  0.84 0.02 0  0.86 0.02 0  0.88 0.02 0  0.9 0.02 0  0.92 0.02 0  0.9399999999999999 0.02 0  0.96 0.02 0  0.98 0.02 0  1 0.02 0  1.02 0.02 0  1.04 0.02 0  1.06 0.02 0  1.08 0.02 0  1.1 0.02 0  1.12 0.02 0  1.14 0.02 0  1.16 0.02 0  1.18 0.02 0  1.2 0.02 0  1.22 0.02 0  1.24 0.02 0  1.26 0.02 0  1.28 0.02 0  1.3 0.02 0  1.32 0.02 0  1.34 0.02 0  1.36 0.02 0  1.38 0.02 0  1.4 0.02 0  1.42 0.02 0  1.44 0.02 0  1.46 0.02 0  1.48 0.02 0  1.5 0.02 0  1.52 0.02 0  1.54 0.02 0  1.56 0.02 0  1.58 0.02 0  1.6 0.02 0  1.62 0.02 0  1.64 0.02 0  1.66 0.02 0  1.68 0.02 0  1.7 0.02 0  1.72 0.02 0  1.74 0.02 0  1.76 0.02 0  1.78 0.02 0  1.8 0.02 0  1.82 0.02 0  1.84 0.02 0  1.86 0.02 0  1.88 0.02 0  1.9 0.02 0  1.92 0.02 0  1.94 0.02 0  1.96 0.02 0  1.98 0.02 0  2 0.02 0  0 0.04 0  0.02 0.04 0  0.04 0.04 0  0.06 0.04 0  0.08 0.04 0  0.1 0.04 0  0.12 0.04 0  0.14 0.04 0  0.16 0.04 0  0.18 0.04 0  0.2 0.04 0  0.22 0.04 0  0.24 0.04 0  0.26 0.04 0  0.28 0.04 0  0.3 0.04 0  0.32 0.04 0  0.34 0.04 0  0.36 0.04 0  0.38 0.04 0  0.4 0.04 0  0.42 0.04 0  0.44 0.04 0  0.46 0.04 0  0.48 0.04 0  0.5 0.04 0  0.52 0.04 0  0.54 0.04 0  0.5600000000000001 0.04 0  0.58 0.04 0  0.6 0.04 0  0.62 0.04 0  0.64 0.04 0  0.66 0.04 0  0.68 0.04 0  0.7 0.04 0  0.72 0.04 0  0.74 0.04 0  0.76 0.04 0  0.78 0.04 0  0.8 0.04 0  0.82 0.04 0  0.84 0.04 0  0.86 0.04 0  0.88 0.04 0  0.9 0.04 0  0.92 0.04 0  0.9399999999999999 0.04 0  0.96 0.04 0  0.98 0.04 0  1 0.04 0  1.02 0.04 0  1.04 0.04 0  1.06 0.04 0  1.08 0.04 0  1.1 0.04 0  1.12 0.04 0  1.14 0.04 0  1.16 0.04 0  1.18 0.04 0  1.2 0.04 0  1.22 0.04 0  1.24 0.04 0  1.26 0.04 0  1.28 0.04 0  1.3 0.04 0  1.32 0.04 0  1.34 0.04 0  1.36 0.04 0  1.38 0.04 0  1.4 0.04 0  1.42 0.04 0  1.44 0.04 0  1.46 0.04 0  1.48 0.04 0  1.5 0.04 0  1.52 0.04 0  1.54 0.04 0  1.56 0.04 0  1.58 0.04 0  1.6 0.04 0  1.62 0.04 0  1.64 0.04 0  1.66 0.04 0  1.68 0.04 0  1.7 0.04 0  1.72 0.04 0  1.74 0.04 0  1.76 0.04 0  1.78 0.04 0  1.8 0.04 0  1.82 0.04 0  1.84 0.04 0  1.86 0.04 0  1.88 0.04 0  1.9 0.04 0  1.92 0.04 0  1.94 0.04 0  1.96 0.04 0  1.98 0.04 0  2 0.04 0  0 0.06 0  0.02 0.06 0  0.04 0.06 0  0.06 0.06 0  0.08 0.06 0  0.1 0.06 0  0.12 0.06 0  0.14 0.06 0  0.16 0.06 0  0.18 0.06 0  0.2 0.06 0  0.22 0.06 0  0.24 0.06 0  0.26 0.06 0  0.28 0.06 0  0.3 0.06 0  0.32 0.06 0  0.34 0.06 0  0.36 0.06 0  0.38 0.06 0  0.4 0.06 0  0.42 0.06 0  0.44 0.06 0  0.46 0.06 0  0.48 0.06 0  0.5 0.06 0  0.52 0.06 0  0.54 0.06 0  0.5600000000000001 0.06 0  0.58 0.06 0  0.6 0.06 0  0.62 0.06 0  0.64 0.06 0  0.66 0.06 0  0.68 0.06 0  0.7 0.06 0  0.72 0.06 0  0.74 0.06 0  0.76 0.06 0  0.78 0.06 0  0.8 0.06 0  0.82 0.06 0  0.84 0.06 0  0.86 0.06 0  0.88 0.06 0  0.9 0.06 0  0.92 0.06 0  0.9399999999999999 0.06 0  0.96 0.06 0  0.98 0.06 0  1 0.06 0  1.02 0.06 0  1.04 0.06 0  1.06 0.06 0  1.08 0.06 0  1.1 0.06 0  1.12 0.06 0  1.14 0.06 0  1.16 0.06 0  1.18 0.06 0  1.2 0.06 0  1.22 0.06 0  1.24 0.06 0  1.26 0.06 0  1.28 0.06 0  1.3 0.06 0  1.32 0.06 0  1.34 0.06 0  1.36 0.06 0  1.38 0.06 0  1.4 0.06 0  1.42 0.06 0  1.44 0.06 0  1.46 0.06 0  1.48 0.06 0  1.5 0.06 0  1.52 0.06 0  1.54 0.06 0  1.56 0.06 0  1.58 0.06 0  1.6 0.06 0  1.62 0.06 0  1.64 0.06 0  1.66 0.06 0  1.68 0.06 0  1.7 0.06 0  1.72 0.06 0  1.74 0.06 0  1.76 0.06 0  1.78 0.06 0  1.8 0.06 0  1.82 0.06 0  1.84 0.06 0  1.86 0.06 0  1.88 0.06 0  1.9 0.06 0  1.92 0.06 0  1.94 0.06 0  1.96 0.06 0  1.98 0.06 0  2 0.06 0  0 0.08 0  0.02 0.08 0  0.04 0.08 0  0.06 0.08 0  0.08 0.08 0  0.1 0.08 0  0.12 0.08 0  0.14 0.08 0  0.16 0.08 0  0.18 0.08 0  0.2 0.08 0  0.22 0.08 0  0.24 0.08 0  0.26 0.08 0  0.28 0.08 0  0.3 0.08 0  0.32 0.08 0  0.34 0.08 0  0.36 0.08 0  0.38 0.08 0  0.4 0.08 0  0.42 0.08 0  0.44 0.08 0  0.46 0.08 0  0.48 0.08 0  0.5 0.08 0  0.52 0.08 0  0.54 0.08 0  0.5600000000000001 0.08 0  0.58 0.08 0  0.6 0.08 0  0.62 0.08 0  0.64 0.08 0  0.66 0.08 0  0.68 0.08 0  0.7 0.08 0  0.72 0.08 0  0.74 0.08 0  0.76 0.08 0  0.78 0.08 0  0.8 0.08 0  0.82 0.08 0  0.84 0.08 0  0.86 0.08 0  0.88 0.08 0  0.9 0.08 0  0.92 0.08 0  0.9399999999999999 0.08 0  0.96 0.08 0  0.98 0.08 0  1 0.08 0  1.02 0.08 0  1.04 0.08 0  1.06 0.08 0  1.08 0.08 0  1.1 0.08 0  1.12 0.08 0  1.14 0.08 0  1.16 0.08 0  1.18 0.08 0  1.2 0.08 0  1.22 0.08 0  1.24 0.08 0  1.26 0.08 0  1.28 0.08 0  1.3 0.08 0  1.32 0.08 0  1.34 0.08 0  1.36 0.08 0  1.38 0.08 0  1.4 0.08 0  1.42 0.08 0  1.44 0.08 0  1.46 0.08 0  1.48 0.08 0  1.5 0.08 0  1.52 0.08 0  1.54 0.08 0  1.56 0.08 0  1.58 0.08 0  1.6 0.08 0  1.62 0.08 0  1.64 0.08 0  1.66 0.08 0  1.68 0.08 0  1.7 0.08 0  1.72 0.08 0  1.74 0.08 0  1.76 0.08 0  1.78 0.08 0  1.8 0.08 0  1.82 0.08 0  1.84 0.08 0  1.86 0.08 0  1.88 0.08 0  1.9 0.08 0  1.92 0.08 0  1.94 0.08 0  1.96 0.08 0  1.98 0.08 0  2 0.08 0  0 0.1 0  0.02 0.1 0  0.04 0.1 0  0.06 0.1 0  0.08 0.1 0  0.1 0.1 0  0.12 0.1 0  0.14 0.1 0  0.16 0.1 0  0.18 0.1 0  0.2 0.1 0  0.22 0.1 0  0.24 0.1 0  0.26 0.1 0  0.28 0.1 0  0.3 0.1 0  0.32 0.1 0  0.34 0.1 0  0.36 0.1 0  0.38 0.1 0  0.4 0.1 0  0.42 0.1 0  0.44 0.1 0  0.46 0.1 0  0.48 0.1 0  0.5 0.1 0  0.52 0.1 0  0.54 0.1 0  0.5600000000000001 0.1 0  0.58 0.1 0  0.6 0.1 0  0.62 0.1 0  0.64 0.1 0  0.66 0.1 0  0.68 0.1 0  0.7 0.1 0  0.72 0.1 0  0.74 0.1 0  0.76 0.1 0  0.78 0.1 0  0.8 0.1 0  0.82 0.1 0  0.84 0.1 0  0.86 0.1 0  0.88 0.1 0  0.9 0.1 0  0.92 0.1 0  0.9399999999999999 0.1 0  0.96 0.1 0  0.98 0.1 0  1 0.1 0  1.02 0.1 0  1.04 0.1 0  1.06 0.1 0  1.08 0.1 0  1.1 0.1 0  1.12 0.1 0  1.14 0.1 0  1.16 0.1 0  1.18 0.1 0  1.2 0.1 0  1.22 0.1 0  1.24 0.1 0  1.26 0.1 0  1.28 0.1 0  1.3 0.1 0  1.32 0.1 0  1.34 0.1 0  1.36 0.1 0  1.38 0.1 0  1.4 0.1 0  1.42 0.1 0  1.44 0.1 0  1.46 0.1 0  1.48 0.1 0  1.5 0.1 0  1.52 0.1 0  1.54 0.1 0  1.56 0.1 0  1.58 0.1 0  1.6 0.1 0  1.62 0.1 0  1.64 0.1 0  1.66 0.1 0  1.68 0.1 0  1.7 0.1 0  1.72 0.1 0  1.74 0.1 0  1.76 0.1 0  1.78 0.1 0  1.8 0.1 0  1.82 0.1 0  1.84 0.1 0  1.86 0.1 0  1.88 0.1 0  1.9 0.1 0  1.92 0.1 0  1.94 0.1 0  1.96 0.1 0  1.98 0.1 0  2 0.1 0  0 0.12 0  0.02 0.12 0  0.04 0.12 0  0.06 0.12 0  0.08 0.12 0  0.1 0.12 0  0.12 0.12 0  0.14 0.12 0  0.16 0.12 0  0.18 0.12 0  0.2 0.12 0  0.22 0.12 0  0.24 0.12 0  0.26 0.12 0  0.28 0.12 0  0.3 0.12 0  0.32 0.12 0  0.34 0.12 0  0.36 0.12 0  0.38 0.12 0  0.4 0.12 0  0.42 0.12 0  0.44 0.12 0  0.46 0.12 0  0.48 0.12 0  0.5 0.12 0  0.52 0.12 0  0.54 0.12 0  0.5600000000000001 0.12 0  0.58 0.12 0  0.6 0.12 0  0.62 0.12 0  0.64 0.12 0  0.66 0.12 0  0.68 0.12 0  0.7 0.12 0  0.72 0.12 0  0.74 0.12 0  0.76 0.12 0  0.78 0.12 0  0.8 0.12 0  0.82 0.12 0  0.84 0.12 0  0.86 0.12 0  0.88 0.12 0  0.9 0.12 0  0.92 0.12 0  0.9399999999999999 0.12 0  0.96 0.12 0  0.98 0.12 0  1 0.12 0  1.02 0.12 0  1.04 0.12 0  1.06 0.12 0  1.08 0.12 0  1.1 0.12 0  1.12 0.12 0  1.14 0.12 0  1.16 0.12 0  1.18 0.12 0  1.2 0.12 0  1.22 0.12 0  1.24 0.12 0  1.26 0.12 0  1.28 0.12 0  1.3 0.12 0  1.32 0.12 0  1.34 0.12 0  1.36 0.12 0  1.38 0.12 0  1.4 0.12 0  1.42 0.12 0  1.44 0.12 0  1.46 0.12 0  1.48 0.12 0  1.5 0.12 0  1.52 0.12 0  1.54 0.12 0  1.56 0.12 0  1.58 0.12 0  1.6 0.12 0  1.62 0.12 0  1.64 0.12 0  1.66 0.12 0  1.68 0.12 0  1.7 0.12 0  1.72 0.12 0  1.74 0.12 0  1.76 0.12 0  1.78 0.12 0  1.8 0.12 0  1.82 0.12 0  1.84 0.12 0  1.86 0.12 0  1.88 0.12 0  1.9 0.12 0  1.92 0.12 0  1.94 0.12 0  1.96 0.12 0  1.98 0.12 0  2 0.12 0  0 0.14 0  0.02 0.14 0  0.04 0.14 0  0.06 0.14 0  0.08 0.14 0  0.1 0.14 0  0.12 0.14 0  0.14 0.14 0  0.16 0.14 0  0.18 0.14 0  0.2 0.14 0  0.22 0.14 0  0.24 0.14 0  0.26 0.14 0  0.28 0.14 0  0.3 0.14 0  0.32 0.14 0  0.34 0.14 0  0.36 0.14 0  0.38 0.14 0  0.4 0.14 0  0.42 0.14 0  0.44 0.14 0  0.46 0.14 0  0.48 0.14 0  0.5 0.14 0  0.52 0.14 0  0.54 0.14 0  0.5600000000000001 0.14 0  0.58 0.14 0  0.6 0.14 0  0.62 0.14 0  0.64 0.14 0  0.66 0.14 0  0.68 0.14 0  0.7 0.14 0  0.72 0.14 0  0.74 0.14 0  0.76 0.14 0  0.78 0.14 0  0.8 0.14 0  0.82 0.14 0  0.84 0.14 0  0.86 0.14 0  0.88 0.14 0  0.9 0.14 0  0.92 0.14 0  0.9399999999999999 0.14 0  0.96 0.14 0  0.98 0.14 0  1 0.14 0  1.02 0.14 0  1.04 0.14 0  1.06 0.14 0  1.08 0.14 0  1.1 0.14 0  1.12 0.14 0  1.14 0.14 0  1.16 0.14 0  1.18 0.14 0  1.2 0.14 0  1.22 0.14 0  1.24 0.14 0  1.26 0.14 0  1.28 0.14 0  1.3 0.14 0  1.32 0.14 0  1.34 0.14 0  1.36 0.14 0  1.38 0.14 0  1.4 0.14 0  1.42 0.14 0  1.44 0.14 0  1.46 0.14 0  1.48 0.14 0  1
[...]
<PointData  Scalars="sols[i]"> 
<DataArray  type="Float64"  Name="sols[i]"  format="ascii">3.8034843662547951e-01  3.4628172172094573e-01  3.4628175863379768e-01  3.4628182550209025e-01  3.4628193400216339e-01  3.4628209929369785e-01  3.4628233940176406e-01  3.4628267397243551e-01  3.4628312297296460e-01  3.4628370572433653e-01  3.4628444043673656e-01  3.4628534422889484e-01  3.4628643347205545e-01  3.4628772418282627e-01  3.4628923210613938e-01  3.4629097209056309e-01  3.4629295637563129e-01  3.4629519149758914e-01  3.4629767371210113e-01  3.4630038313356848e-01  3.4630327722117998e-01  3.4630628459186569e-01  3.4630930038957380e-01  3.4631218733990315e-01  3.4631478211202277e-01  3.4631690966080886e-01  3.4631840780294820e-01  3.4631916013239161e-01  3.4631913492178384e-01  3.4631842559021991e-01  3.4631728691471247e-01  3.4631616071324323e-01  3.4631568542474844e-01  3.4631668583324171e-01  3.4632014180735621e-01  3.4632713791679526e-01  3.4633879924427219e-01  3.4635622316933240e-01  3.4638040446383039e-01  3.4641215435716682e-01  3.4645206081082841e-01  3.4650046216968772e-01  3.4655743871804268e-01  3.4662282786525506e-01  3.4669625790866837e-01  3.4677718518174583e-01  3.4686491603681446e-01  3.4695859814619873e-01  3.4705717860104668e-01  3.4715935698113320e-01  3.4726358649427397e-01  3.4736816675565152e-01  3.4747142622935440e-01  3.4757191699768775e-01  3.4766847412537621e-01  3.4776002169435000e-01  3.4784530265924024e-01  3.4792289962440448e-01  3.4799165867517684e-01  3.4805120315152360e-01  3.4810204515576243e-01  3.4814554150070309e-01  3.4818407239840549e-01  3.4822084787351648e-01  3.4825954454877228e-01  3.4830486759982665e-01  3.4836338839770908e-01  3.4844305439345330e-01  3.4855185631816654e-01  3.4869782867601584e-01  3.4889064230945643e-01  3.4914300508420493e-01  3.4947012209126405e-01  3.4988630276669119e-01  3.5039878226628818e-01  3.5099771118850775e-01  3.5164092464662022e-01  3.5223902846682953e-01  3.5265875501835514e-01  3.5276749967035859e-01  3.5250438645317983e-01  3.5192069818706051e-01  3.5115990067741043e-01  3.5038052245208096e-01  3.4968451220026736e-01  3.4910261054404962e-01  3.4862016730236234e-01  3.4820918269337342e-01  3.4784778484966394e-01  3.4752581997991866e-01  3.4724207662142043e-01  3.4699902871319710e-01  3.4679866341074622e-01  3.4664045983770087e-01  3.4652113555512071e-01  3.4643536589684765e-01  3.4637682638701217e-01  3.4633919193582763e-01  3.4631695823069319e-01  3.4630608386344980e-01  4.3368116396689277e-01  3.4628172109013799e-01  3.0257998973330302e-01  3.0258006292427558e-01  3.0258019492582622e-01  3.0258040234919031e-01  3.0258070539687537e-01  3.0258112762022971e-01  3.0258169487249958e-01  3.0258243385503653e-01  3.0258337085771175e-01  3.0258453105014865e-01  3.0258593838782932e-01  3.0258761594438438e-01  3.0258958627832150e-01  3.0259187130286924e-01  3.0259449107005820e-01  3.0259746093460471e-01  3.0260078675827379e-01  3.0260445817438558e-01  3.0260844047138824e-01  3.0261266631994815e-01  3.0261702929787282e-01  3.0262138173887398e-01  3.0262554048103268e-01  3.0262930337830413e-01  3.0263247764008278e-01  3.0263492160211680e-01  3.0263659703841256e-01  3.0263762724481436e-01  3.0263835383683069e-01  3.0263938382971706e-01  3.0264161855969096e-01  3.0264625748929891e-01  3.0265477271697150e-01  3.0266885351719502e-01  3.0269032381521016e-01  3.0272103888295032e-01  3.0276277140792845e-01  3.0281709920763544e-01  3.0288528839965090e-01  3.0296820871135893e-01  3.0306629779775746e-01  3.0317955764463611e-01  3.0330758916800232e-01  3.0344965966987847e-01  3.0360477218931670e-01  3.0377169454973407e-01  3.0394890924120199e-01  3.0413447264092658e-01  3.0432585250575439e-01  3.0451988061729601e-01  3.0471293219453099e-01  3.0490134017604564e-01  3.0508185724394660e-01  3.0525178464965846e-01  3.0540841517643980e-01  3.0554822806438786e-01  3.0566686571804352e-01  3.0576018946308570e-01  3.0582553505234211e-01  3.0586171116632582e-01  3.0586854804149088e-01  3.0584763911774532e-01  3.0580226746643285e-01  3.0573592291863627e-01  3.0565306694128175e-01  3.0556214690339512e-01  3.0547622364715271e-01  3.0541014155408142e-01  3.0537907357883964e-01  3.0540042855196198e-01  3.0549601543199600e-01  3.0569137563202853e-01  3.0601355534953861e-01  3.0648833702146100e-01  3.0713202363786102e-01  3.0793042043670760e-01  3.0880717743319053e-01  3.0960388577183157e-01  3.1012228645573409e-01  3.1022690152943294e-01  3.0991947119559443e-01  3.0933515829675168e-01  3.0864197966690077e-01  3.0795130556304073e-01  3.0730508433753539e-01  3.0670160902643273e-01  3.0612624169041319e-01  3.0557060236851930e-01  3.0503837311785087e-01  3.0454204287119380e-01  3.0409633698899702e-01  3.0371269783594218e-01  3.0339654869622973e-01  3.0314711756591251e-01  3.0295882238695304e-01  3.0282323192290778e-01  3.0273094283186230e-01  3.0267308066477516e-01  3.0264245119986732e-01  3.4630557397971284e-01  3.4628175589392213e-01  3.0258005921392722e-01  3.0258016492638123e-01  3.0258034472429179e-01  3.0258060813574117e-01  3.0258096390253564e-01  3.0258142025394397e-01  3.0258198574523798e-01  3.0258266974877457e-01  3.0258348258551254e-01  3.0258443550668729e-01  3.0258554064714455e-01  3.0258681090926703e-01  3.0258825958574465e-01  3.0258989943145487e-01  3.0259174088595836e-01  3.0259378926085279e-01  3.0259604096345855e-01  3.0259847924164640e-01  3.0260107048403312e-01  3.0260376265594230e-01  3.0260648789277844e-01  3.0260917139961963e-01  3.0261174844414568e-01  3.0261418993530825e-01  3.0261653481460615e-01  3.0261892668009355e-01  3.0262164935115282e-01  3.0262515595962186e-01  3.0263008653490198e-01  3.0263727057179124e-01  3.0264771336677460e-01  3.0266256734176650e-01  3.0268309138844818e-01  3.0271060173814202e-01  3.0274641690958964e-01  3.0279179810295753e-01  3.0284788677381824e-01  3.0291564353106637e-01  3.0299578587083459e-01  3.0308873154257526e-01  3.0319458945022215e-01  3.0331316849999845e-01  3.0344402000126536e-01  3.0358650369585483e-01  3.0373984581032965e-01  3.0390313852627265e-01  3.0407522986449997e-01  3.0425448389757881e-01  3.0443852635033364e-01  3.0462418282620340e-01  3.0480775229180218e-01  3.0498563167304943e-01  3.0515502240155995e-01  3.0531411615793308e-01  3.0546112588791996e-01  3.0559301438368347e-01  3.0570564940468187e-01  3.0579565210354209e-01  3.0586234141877439e-01  3.0590698136623085e-01  3.0593142650287303e-01  3.0594001100246765e-01  3.0594050436058712e-01  3.0594153444353367e-01  3.0595165015656162e-01  3.0598201936773833e-01  3.0604890615482261e-01  3.0617403627722806e-01  3.0638510607897740e-01  3.0671589900979118e-01  3.0720501445286241e-01  3.0789074933551547e-01  3.0881178828254946e-01  3.1001667286177625e-01  3.1154717486048711e-01  3.1335582931680106e-01  3.1516039207141955e-01  3.1635731877469381e-01  3.1632771646386088e-01  3.1500385057581504e-01  3.1294300564269878e-01  3.1086831268263138e-01  3.0918998500659589e-01  3.0795322903095990e-01  3.0705528848930608e-01  3.0637712895418717e-01  3.0582594842149036e-01  3.0534268187438213e-01  3.0489831287604297e-01  3.0448505486452371e-01  3.0410635031608663e-01  3.0376896881895382e-01  3.0347830833191125e-01  3.0323652157559272e-01  3.0304253452537316e-01  3.0289300813879166e-01  3.0278352381527357e-01  3.0270962945899443e-01  3.0266782368406775e-01  3.4631412183311916e-01  3.4628181790837465e-01  3.0258018242693657e-01  3.0258033559717123e-01  3.0258057935223709e-01  3.0258091258726733e-01  3.0258133114496949e-01  3.0258182742149409e-01  3.0258239235866941e-01  3.0258301785652192e-01  3.0258369864286849e-01  3.0258443338073571e-01  3.0258522504091240e-01  3.0258608058100883e-01  3.0258700991920590e-01  3.0258802416227315e-01  3.0258913310581353e-01  3.0259034221198405e-01  3.0259164960581481e-01  3.0259304411604626e-01  3.0259450598543869e-01  3.0259601233342925e-01  3.0259754960927027e-01  3.0259913474506167e-01  3.0260084511793517e-01  3.0260285482087174e-01  3.0260547178274416e-01  3.0260916864410975e-01  3.0261459931382295e-01  3.0262259487773335e-01  3.0263413606121997e-01  3.0265030429359202e-01  3.0267221854324283e-01  3.0270096888783771e-01  3.0273755864159302e-01  3.0278286351837086e-01  3.0283760932557657e-01  3.0290236269922199e-01  3.0297752665142169e-01  3.0306333515321071e-01  3.0315984152336528e-01  3.0326689580966582e-01  3.0338416358725206e-01  3.0351116201860684e-01  3.0364731319259625e-01  3.0379203431025781e-01  3.0394480760734582e-01  3.0410515664034871e-01  3.0427244617860366e-01  3.0444545484362423e-01  3.0462193589227488e-01  3.0479851247000567e-01  3.0497109298002723e-01  3.0513587895028849e-01  3.0529058860963054e-01  3.0543486395433334e-01  3.0556857006430194e-01  3.0568971652530658e-01  3.0579493887927672e-01  3.0588263452087516e-01  3.0595672407851765e-01  3.0602548626737197e-01  3.0609841580999059e-01  3.0618925150663534e-01  3.0632028803809302e-01  3.0652258281365152e-01  3.0683367715693260e-01  3.0729580041382293e-01  3.0795751816703643e-01  3.0888732996794388e-01  3.1020062299888168e-01  3.1208101202661770e-01  3.1479350417304641e-01  3.1862551197745875e-01  3.2369042465666586e-01  3.2972487615284801e-01  3.3615382210086270e-01  3.4233495041806045e-01  3.4732648442064251e-01  3.4983890841910886e-01  3.4868766559251457e-01  3.4209505028363485e-01  3.2965354461220175e-01  3.1761212586965987e-01  3.1167228073657438e-01  3.0873578144503760e-01  3.0715388510678682e-01  3.0623349733380462e-01  3.0564183751750679e-01  3.0520489125296807e-01  3.0483461543268547e-01  3.0449385037464632e-01  3.0417279570018957e-01  3.0387370626104143e-01  3.0360223891790139e-01  3.0336337848958561e-01  3.0316011765590339e-01  3.0299356674862715e-01  3.0286364955294742e-01  3.0277002126963909e-01  3.0271333735634348e-01  3.4633089215922008e-01  3.4628191690266152e-01  3.0258037309167046e-01  3.0258058269698263e-01  3.0258089753939588e-01  3.0258130170138686e-01  3.0258177731523139e-01  3.0258230256980906e-01  3.0258285380153072e-01  3.0258340927955180e-01  3.0258395276964511e-01  3.0258447599967925e-01  3.0258497975310006e-01  3.0258547357348486e-01  3.0258597416276417e-01  3.0258650264052822e-01  3.0258708099372705e-01  3.0258772833220626e-01  3.0258845799546935e-01  3.0258927713378436e-01  3.0259019110157342e-01  3.0259121547615264e-01  3.0259239843778157e-01  3.0259385490801571e-01  3.0259581074604947e-01  3.0259865093127042e-01  3.0260296179898516e-01  3.0260955560201291e-01  3.0261946662463446e-01  3.0263391171555792e-01  3.0265421478923876e-01  3.0268170337279354e-01  3.0271759358242950e-01  3.0276288549516900e-01  3.0281829076820133e-01  3.0288420600756444e-01  3.0296073009443819e-01  3.0304770952518406e-01  3.0314479099231778e-01  3.0325146535963443e-01  3.0336709495767844e-01  3.0349092183058873e-01  3.0362209686820174e-01  3.0375974646708093e-01  3.0390306002247081e-01  3.0405142723888279e-01  3.0420455797800183e-01  3.0436245841412840e-01  3.0452511408432659e-01  3.0469174866129350e-01  3.0486010053410978e-01  3.0502630670706832e-01  3.0518552419833184e-01  3.0533347877632216e-01  3.0546855177920046e-01  3.0559272561899875e-01  3.0570871116284498e-01  3.0581724637323715e-01  3.0591934801935605e-01  3.0602131194692656e-01  3.0614160440422922e-01  3.0631316781355644e-01  3.0658383565844144e-01  3.0702328800791950e-01  3.0773750610500983e-01  3.0890575099906442e-01  3.1084714225266424e-01  3.1412313813375403e-01  3.1944729429407970e-01  3.2663107450146583e-01  3.3398398787619687e-01  3.4097500965468408e-01  3.4920344517941526e-01  3.5511973045861683e-01  3.6025212325548123e-01  3.8020255688250115e-01  4.0684486370182660e-01  4.3894732305996020e-01  4.6748830337363295e-01  4.7898471255566955e-01  4.6583589037453127e-01  4.2281170031575299e-01  3.6857046808356903e-01  3.4654677966810127e-01  3.2139770870129691e-01  3.1108864602942105e-01  3.0777834377821894e-01  3.0633594932016467e-01  3.0561282590037064e-01  3.0518416606870663e-01  3.0486247883523360e-01  3.0457111290501238e-01  3.0428701542759051e-01  3.0400988755933689e-01  3.0374677399417122e-01  3.0350533248129830e-01  3.0329151971627327e-01  3.0310933544776147e-01  3.0296146822320003e-01  3.0285042361656789e-01  3.0278010240291037e-01  3.4635726923166532e-01  3.4628206580141185e-01  3.0258064908574239e-01  3.0258091611870258e-01  3.0258130046664311e-01  3.0258176774775453e-01  3.0258228510871354e-01  3.0258281788689850e-01  3.0258333125218179e-01  3.0258379478223535e-01  3.0258418747361998e-01  3.0258450160362815e-01  3.0258474468788837e-01  3.0258493928656799e-01  3.0258512071743832e-01  3.0258533299461471e-01  3.0258562363521924e-01  3.0258603838851778e-01  3.0258661748321825e-01  3.0258739567585013e-01  3.0258840933395481e-01  3.0258971458016753e-01  3.0259142027974406e-01  3.0259373711686627e-01  3.0259703875966731e-01  3.0260192429609545e-01  3.0260926619698997e-01  3.0262022762483287e-01  3.0263623575104320e-01  3.0265890321811662e-01  3.0268989972241883e-01  3.0273078860429048e-01  3.0278285564528873e-01  3.0284696553974666e-01  3.0292348045085737e-01  3.0301225922380065e-01  3.0311272758865382e-01  3.0322398611773232e-01  3.0334491845828626e-01  3.0347427441694813e-01  3.0361072022406738e-01  3.0375286086477876e-01  3.0389927263668381e-01  3.0404857860978796e-01  3.0419958414599518e-01  3.0435149595685862e-01  3.0450413964997725e-01  3.0465797861938626e-01  3.0481366263559112e-01  3.0497076985702093e-01  3.0512670889642340e-01  3.0527685496879114e-01  3.0541564570211560e-01  3.0553880817315149e-01  3.0564664100874989e-01  3.0574644989947503e-01  3.0584843025984199e-01  3.0596436104939273e-01  3.0611918941833566e-01  3.0636554913162273e-01  3.0680240063767400e-01  3.0760684124632698e-01  3.0912422311353349e-01  3.1209753660875350e-01  3.1797353335603196e-01  3.2704134699356646e-01  3.3556646709750571e-01  3.4475230842375121e-01  3.5656916990755372e-01  3.6055076588244489e-01  3.8039976902596062e-01  4.0882757981762158e-01  4.4675066821182968e-01  4.8727093055231863e-01  5.2995615310139499e-01  6.0589526608897881e-01  8.2498952951951121e-01  8.7003375205255340e-01  9.0377951131545464e-01  9.1829015980637008e-01  8.9007092874775029e-01  8.6606516413044410e-01  5.3142540882328415e-01  4.0444073476111958e-01  3.4764619289866999e-01  3.1704090685139280e-01  3.0891668401033162e-01  3.0657501945856391e-01  3.0565195490150893e-01  3.0521786643462517e-01  3.0493538417794452e-01  3.0467996228126604e-01  3.0441805626094176e-01  3.0415067801396173e-01  3.0388842692795204e-01  3.0364200590938523e-01  3.0341954961657797e-01  3.0322666023752742e-01  3.0306747635649350e-01  3.0294615958070853e-01  3.0286819668991966e-01  3.4639457769209897e-01  3.4628228078058615e-01  3.0258103389668883e-01  3.0258135065461855e-01  3.0258179440735589e-01  3.0258231025060772e-01  3.0258284881182168e-01  3.0258336315203782e-01  3.0258381019194469e-01  3.0258415575137038e-01  3.0258438071019150e-01  3.0258448614836680e-01  3.0258449613352317e-01  3.0258445751700841e-01  3.0258443664363444e-01  3.0258451339582326e-01  3.0258477355096453e-01  3.0258530097798414e-01  3.0258617185440656e-01  3.0258745384494001e-01  3.0258921457144944e-01  3.0259154566286656e-01  3.0259460819888617e-01  3.0259870071103356e-01  3.0260434230530125e-01  3.0261235306008133e-01  3.0262390809041273e-01  3.0264054552288433e-01  3.0266411322431702e-01  3.0269664478279495e-01  3.0274016889722771e-01  3.0279647522130937e-01  3.0286687766067560e-01  3.0295202908130303e-01  3.0305183967139004e-01  3.0316552281809628e-01  3.0329174181947022e-01  3.0342879448702603e-01  3.0357477571701202e-01  3.0372768565363578e-01  3.0388548400302851e-01  3.0404610451742098e-01  3.0420747449577096e-01  3.0436757967184896e-01  3.0452463625946463e-01  3.0467741381262814e-01  3.0482560498545641e-01  3.0496996046868280e-01  3.0511173020325921e-01  3.0525057826099722e-01  3.0538309607195108e-01  3.0550401786993819e-01  3.0560902917187915e-01  3.0569880152009216e-01  3.0578422725873849e-01  3.0589416049959178e-01  3.0607705872648505e-01  3.0641775045499170e-01  3.0710125704590602e-01  3.0854678135472807e-01  3.1177836900433764e-01  3.1897927597556147e-01  3.2921942251557978e-01  3.3914130006091303e-01  3.5183828765355096e-01  3.5922680389018102e-01  3.7506482657006396e-01  4.0666634033282661e-01  4.5151384627882718e-01  5.0450062867561229e-01  7.4199593632289562e-01  8.5377662701783119e-01  8.9471842420317294e-01  9.1772488653523243e-01  9.3326948106579377e-01  9.5650352077130718e-01  9.7238324640609464e-01  9.8026389215766629e-01  9.8159770587716177e-01  9.8160646302507570e-01  9.8113029144845110e-01  9.7901945098890830e-01  9.3329593308045966e-01  7.6940464670752851e-01  4.8613454647536536e-01  3.9126296762161689e-01  3.3709159752204404e-01  3.0666657099809175e-01  3.0560745972511200e-01  3.0521643659655856e-01  3.0499600689719258e-01  3.0478074682135115e-01  3.0453661786061459e-01  3.0427328310906576e-01  3.0400869152283300e-01  3.0375783048839144e-01  3.0353086946729602e-01  3.0333433431143308e-01  3.0317304761071456e-01  3.0305191510629564e-01  3.0297592746154806e-01  3.4644339653984202e-01  3.4628258134353168e-01  3.0258155801233022e-01  3.0258190937267498e-01  3.0258239534216785e-01  3.0258294057261897e-01  3.0258347804205815e-01  3.0258394875102707e-01  3.0258430379737622e-01  3.0258450989993824e-01  3.0258455649264310e-01  3.0258446194985172e-01  3.0258427702861268e-01  3.0258408437205508e-01  3.0258399371165595e-01  3.0258413327146455e-01  3.0258463875855102e-01  3.0258564194597504e-01  3.0258726160169408e-01  3.0258960011233477e-01  3.0259275126293994e-01  3.0259683013042565e-01  3.0260203452910278e-01  3.0260873871188138e-01  3.0261760634700158e-01  3.0262969365355480e-01  3.0264650819615840e-01  3.0267000394972654e-01  3.0270249669562355e-01  3.0274648506710045e-01  3.0280438247368169e-01  3.0287819329316917e-01  3.0296919325137561e-01  3.0307769580259158e-01  3.0320298500409643e-01  3.0334344419813303e-01  3.0349681828986785e-01  3.0366049489810615e-01  3.0383171593052199e-01  3.0400768870097844e-01  3.0418562188165216e-01  3.0436271059225994e-01  3.0453612591605184e-01  3.0470305117604857e-01  3.0486087332174922e-01  3.0500759307450798e-01  3.0514237534470423e-01  3.0526595450384003e-01  3.0538018973611830e-01  3.0548480436379954e-01  3.0557620796462159e-01  3.0565241406769861e-01  3.0572211337895794e-01  3.0581969455791536e-01  3.0602585297939738e-01  3.0651123030575039e-01  3.0763168540842828e-01  3.1028622146329726e-01  3.1686296623303789e-01  3.2755047802725618e-01  3.3785995111526079e-01  3.5205051180828667e-01  3.6075811013425146e-01  3.7586090978882697e-01  4.1289790984027375e-01  4.6739220062811393e-01  7.5855468435738616e-01  8.6643661025191454e-01  9.1438164714840486e-01  9.2723315998234201e-01  9.5510670944298914e-01  9.7285410794182858e-01  9.8199855545399362e-01  9.8380483026349819e-01  9.8325936655735113e-01  9.8572289038278360e-01  9.9109772677805985e-01  9.9468665252196942e-01  9.9497566827151696e-01  9.9471244852007901e-01  9.9451500844998941e-01  9.9154970293946643e-01  9.7858497078333462e-01  8.1159766456938542e-01  6.5155690635567121e-01  5.7106564362067291e-01  5.3060995941033684e-01  3.5335621318915478e-01  3.0534211191033500e-01  3.0511886584898251e-01  3.0501043759364660e-01  3.0485094074866420e-01  3.0462596804025044e-01  3.0436449988008740e-01  3.0409665896539706e-01  3.0384333060394925e-01  3.0361689423738564e-01  3.0342450710881785e-01  3.0327128046999219e-01  3.0316214857041457e-01  3.0309941136569796e-01  3.4650307900100658e-01  3.4628299108604449e-01  3.0258226105631658e-01  3.0258262716617818e-01  3.0258313401585374e-01  3.0258368807433933e-01  3.0258420453348583e-01  3.0258461286517668e-01  3.0258486073684748e-01  3.0258492029282974e-01  3.0258479609201716e-01  3.0258453222710685e-01  3.0258421616949538e-01  3.0258397757820615e-01  3.0258398135481784e-01  3.0258441556817017e-01  3.0258547618456816e-01  3.0258735103842466e-01  3.0259020631161709e-01  3.0259417834310659e-01  3.0259937671069598e-01  3.0260592007952719e-01  3.02614019862