<?xml version="1.0"?>
<VTKFile type="UnstructuredGrid"  version="0.1"  >
<UnstructuredGrid>
<Piece  NumberOfPoints="5151" NumberOfCells="10000">
<Points>
<DataArray  type="Float64"  NumberOfComponents="3"  format="ascii">0 0 0  0.02 0 0  0.04 0 0  0.06 0 0  0.08 0 0  0.1 0 0  0.12 0 0  0.14 0 0  0.16 0 0  0.18 0 0  0.2 0 0  0.22 0 0  0.24 0 0  0.26 0 0  0.28 0 0  0.3 0 0  0.32 0 0  0.34 0 0  0.36 0 0  0.38 0 0  0.4 0 0  0.42 0 0  0.44 0 0  0.46 0 0  0.48 0 0  0.5 0 0  0.52 0 0  0.54 0 0  0.5600000000000001 0 0  0.58 0 0  0.6 0 0  0.62 0 0  0.64 0 0  0.66 0 0  0.68 0 0  0.7 0 0  0.72 0 0  0.74 0 0  0.76 0 0  0.78 0 0  0.8 0 0  0.82 0 0  0.84 0 0  0.86 0 0  0.88 0 0  0.9 0 0  0.92 0 0  0.9399999999999999 0 0  0.96 0 0  0.98 0 0  1 0 0  1.02 0 0  1.04 0 0  1.06 0 0  1.08 0 0  1.1 0 0  1.12 0 0  1.14 0 0  1.16 0 0  1.18 0 0  1.2 0 0  1.22 0 0  1.24 0 0  1.26 0 0  1.28 0 0  1.3 0 0  1.32 0 0  1.34 0 0  1.36 0 0  1.38 0 0  1.4 0 0  1.42 0 0  1.44 0 0  1.46 0 0  1.48 0 0  1.5 0 0  1.52 0 0  1.54 0 0  1.56 0 0  1.58 0 0  1.6 0 0  1.62 0 0  1.64 0 0  1.66 0 0  1.68 0 0  1.7 0 0  1.72 0 0  1.74 0 0  1.76 0 0  1.78 0 0  1.8 0 0  1.82 0 0  1.84 0 0  1.86 0 0  1.88 0 0  1.9 0 0  1.92 0 0  1.94 0 0  1.96 0 0  1.98 0 0  2 0 0  0 0.02 0  0.02 0.02 0  0.04 0.02 0  0.06 0.02 0  0.08 0.02 0  0.1 0.02 0  0.12 0.02 0  0.14 0.02 0  0.16 0.02 0  0.18 0.02 0  0.2 0.02 0  0.22 0.02 0  0.24 0.02 0  0.26 0.02 0  0.28 0.02 0  0.3 0.02 0  0.32 0.02 0  0.34 0.02 0  0.36 0.02 0  0.38 0.02 0  0.4 0.02 0  0.42 0.02 0  0.44 0.02 0  0.46 0.02 0  0.48 0.02 0  0.5 0.02 0  0.52 0.02 0  0.54 0.02 0  0.5600000000000001 0.02 0  0.58 0.02 0  0.6 0.02 0  0.62 0.02 0  0.64 0.02 0  0.66 0.02 0  0.68 0.02 0  0.7 0.02 0  0.72 0.02 0  0.74 0.02 0  0.76 0.02 0  0.78 0.02 0  0.8 0.02 0  0.82 0.02 0  0.84 0.02 0  0.86 0.02 0  0.88 0.02 0  0.9 0.02 0  0.92 0.02 0  0.9399999999999999 0.02 0  0.96 0.02 0  0.98 0.02 0  1 0.02 0  1.02 0.02 0  1.04 0.02 0  1.06 0.02 0  1.08 0.02 0  1.1 0.02 0  1.12 0.02 0  1.14 0.02 0  1.16 0.02 0  1.18 0.02 0  1.2 0.02 0  1.22 0.02 0  1.24 0.02 0  1.26 0.02 0  1.28 0.02 0  1.3 0.02 0  1.32 0.02 0  1.34 0.02 0  1.36 0.02 0  1.38 0.02 0  1.4 0.02 0  1.42 0.02 0  1.44 0.02 0  1.46 0.02 0  1.48 0.02 0  1.5 0.02 0  1.52 0.02 0  1.54 0.02 0  1.56 0.02 0  1.58 0.02 0  1.6 0.02 0  1.62 0.02 0  1.64 0.02 0  1.66 0.02 0  1.68 0.02 0  1.7 0.02 0  1.72 0.02 0  1.74 0.02 0  1.76 0.02 0  1.78 0.02 0  1.8 0.02 0  1.82 0.02 0  1.84 0.02 0  1.86 0.02 0  1.88 0.02 0  1.9 0.02 0  1.92 0.02 0  1.94 0.02 0  1.96 0.02 0  1.98 0.02 0  2 0.02 0  0 0.04 0  0.02 0.04 0  0.04 0.04 0  0.06 0.04 0  0.08 0.04 0  0.1 0.04 0  0.12 0.04 0  0.14 0.04 0  0.16 0.04 0  0.18 0.04 0  0.2 0.04 0  0.22 0.04 0  0.24 0.04 0  0.26 0.04 0  0.28 0.04 0  0.3 0.04 0  0.32 0.04 0  0.34 0.04 0  0.36 0.04 0  0.38 0.04 0  0.4 0.04 0  0.42 0.04 0  0.44 0.04 0  0.46 0.04 0  0.48 0.04 0  0.5 0.04 0  0.52 0.04 0  0.54 0.04 0  0.5600000000000001 0.04 0  0.58 0.04 0  0.6 0.04 0  0.62 0.04 0  0.64 0.04 0  0.66 0.04 0  0.68 0.04 0  0.7 0.04 0  0.72 0.04 0  0.74 0.04 0  0.76 0.04 0  0.78 0.04 0  0.8 0.04 0  0.82 0.04 0  0.84 0.04 0  0.86 0.04 0  0.88 0.04 0  0.9 0.04 0  0.92 0.04 0  0.9399999999999999 0.04 0  0.96 0.04 0  0.98 0.04 0  1 0.04 0  1.02 0.04 0  1.04 0.04 0  1.06 0.04 0  1.08 0.04 0  1.1 0.04 0  1.12 0.04 0  1.14 0.04 0  1.16 0.04 0  1.18 0.04 0  1.2 0.04 0  1.22 0.04 0  1.24 0.04 0  1.26 0.04 0  1.28 0.04 0  1.3 0.04 0  1.32 0.04 0  1.34 0.04 0  1.36 0.04 0  1.38 0.04 0  1.4 0.04 0  1.42 0.04 0  1.44 0.04 0  1.46 0.04 0  1.48 0.04 0  1.5 0.04 0  1.52 0.04 0  1.54 0.04 0  1.56 0.04 0  1.58 0.04 0  1.6 0.04 0  1.62 0.04 0  1.64 0.04 0  1.66 0.04 0  1.68 0.04 0  1.7 0.04 0  1.72 0.04 0  1.74 0.04 0  1.76 0.04 0  1.78 0.04 0  1.8 0.04 0  1.82 0.04 0  1.84 0.04 0  1.86 0.04 0  1.88 0.04 0  1.9 0.04 0  1.92 0.04 0  1.94 0.04 0  1.96 0.04 0  1.98 0.04 0  2 0.04 0  0 0.06 0  0.02 0.06 0  0.04 0.06 0  0.06 0.06 0  0.08 0.06 0  0.1 0.06 0  0.12 0.06 0  0.14 0.06 0  0.16 0.06 0  0.18 0.06 0  0.2 0.06 0  0.22 0.06 0  0.24 0.06 0  0.26 0.06 0  0.28 0.06 0  0.3 0.06 0  0.32 0.06 0  0.34 0.06 0  0.36 0.06 0  0.38 0.06 0  0.4 0.06 0  0.42 0.06 0  0.44 0.06 0  0.46 0.06 0  0.48 0.06 0  0.5 0.06 0  0.52 0.06 0  0.54 0.06 0  0.5600000000000001 0.06 0  0.58 0.06 0  0.6 0.06 0  0.62 0.06 0  0.64 0.06 0  0.66 0.06 0  0.68 0.06 0  0.7 0.06 0  0.72 0.06 0  0.74 0.06 0  0.76 0.06 0  0.78 0.06 0  0.8 0.06 0  0.82 0.06 0  0.84 0.06 0  0.86 0.06 0  0.88 0.06 0  0.9 0.06 0  0.92 0.06 0  0.9399999999999999 0.06 0  0.96 0.06 0  0.98 0.06 0  1 0.06 0  1.02 0.06 0  1.04 0.06 0  1.06 0.06 0  1.08 0.06 0  1.1 0.06 0  1.12 0.06 0  1.14 0.06 0  1.16 0.06 0  1.18 0.06 0  1.2 0.06 0  1.22 0.06 0  1.24 0.06 0  1.26 0.06 0  1.28 0.06 0  1.3 0.06 0  1.32 0.06 0  1.34 0.06 0  1.36 0.06 0  1.38 0.06 0  1.4 0.06 0  1.42 0.06 0  1.44 0.06 0  1.46 0.06 0  1.48 0.06 0  1.5 0.06 0  1.52 0.06 0  1.54 0.06 0  1.56 0.06 0  1.58 0.06 0  1.6 0.06 0  1.62 0.06 0  1.64 0.06 0  1.66 0.06 0  1.68 0.06 0  1.7 0.06 0  1.72 0.06 0  1.74 0.06 0  1.76 0.06 0  1.78 0.06 0  1.8 0.06 0  1.82 0.06 0  1.84 0.06 0  1.86 0.06 0  1.88 0.06 0  1.9 0.06 0  1.92 0.06 0  1.94 0.06 0  1.96 0.06 0  1.98 0.06 0  2 0.06 0  0 0.08 0  0.02 0.08 0  0.04 0.08 0  0.06 0.08 0  0.08 0.08 0  0.1 0.08 0  0.12 0.08 0  0.14 0.08 0  0.16 0.08 0  0.18 0.08 0  0.2 0.08 0  0.22 0.08 0  0.24 0.08 0  0.26 0.08 0  0.28 0.08 0  0.3 0.08 0  0.32 0.08 0  0.34 0.08 0  0.36 0.08 0  0.38 0.08 0  0.4 0.08 0  0.42 0.08 0  0.44 0.08 0  0.46 0.08 0  0.48 0.08 0  0.5 0.08 0  0.52 0.08 0  0.54 0.08 0  0.5600000000000001 0.08 0  0.58 0.08 0  0.6 0.08 0  0.62 0.08 0  0.64 0.08 0  0.66 0.08 0  0.68 0.08 0  0.7 0.08 0  0.72 0.08 0  0.74 0.08 0  0.76 0.08 0  0.78 0.08 0  0.8 0.08 0  0.82 0.08 0  0.84 0.08 0  0.86 0.08 0  0.88 0.08 0  0.9 0.08 0  0.92 0.08 0  0.9399999999999999 0.08 0  0.96 0.08 0  0.98 0.08 0  1 0.08 0  1.02 0.08 0  1.04 0.08 0  1.06 0.08 0  1.08 0.08 0  1.1 0.08 0  1.12 0.08 0  1.14 0.08 0  1.16 0.08 0  1.18 0.08 0  1.2 0.08 0  1.22 0.08 0  1.24 0.08 0  1.26 0.08 0  1.28 0.08 0  1.3 0.08 0  1.32 0.08 0  1.34 0.08 0  1.36 0.08 0  1.38 0.08 0  1.4 0.08 0  1.42 0.08 0  1.44 0.08 0  1.46 0.08 0  1.48 0.08 0  1.5 0.08 0  1.52 0.08 0  1.54 0.08 0  1.56 0.08 0  1.58 0.08 0  1.6 0.08 0  1.62 0.08 0  1.64 0.08 0  1.66 0.08 0  1.68 0.08 0  1.7 0.08 0  1.72 0.08 0  1.74 0.08 0  1.76 0.08 0  1.78 0.08 0  1.8 0.08 0  1.82 0.08 0  1.84 0.08 0  1.86 0.08 0  1.88 0.08 0  1.9 0.08 0  1.92 0.08 0  1.94 0.08 0  1.96 0.08 0  1.98 0.08 0  2 0.08 0  0 0.1 0  0.02 0.1 0  0.04 0.1 0  0.06 0.1 0  0.08 0.1 0  0.1 0.1 0  0.12 0.1 0  0.14 0.1 0  0.16 0.1 0  0.18 0.1 0  0.2 0.1 0  0.22 0.1 0  0.24 0.1 0  0.26 0.1 0  0.28 0.1 0  0.3 0.1 0  0.32 0.1 0  0.34 0.1 0  0.36 0.1 0  0.38 0.1 0  0.4 0.1 0  0.42 0.1 0  0.44 0.1 0  0.46 0.1 0  0.48 0.1 0  0.5 0.1 0  0.52 0.1 0  0.54 0.1 0  0.5600000000000001 0.1 0  0.58 0.1 0  0.6 0.1 0  0.62 0.1 0  0.64 0.1 0  0.66 0.1 0  0.68 0.1 0  0.7 0.1 0  0.72 0.1 0  0.74 0.1 0  0.76 0.1 0  0.78 0.1 0  0.8 0.1 0  0.82 0.1 0  0.84 0.1 0  0.86 0.1 0  0.88 0.1 0  0.9 0.1 0  0.92 0.1 0  0.9399999999999999 0.1 0  0.96 0.1 0  0.98 0.1 0  1 0.1 0  1.02 0.1 0  1.04 0.1 0  1.06 0.1 0  1.08 0.1 0  1.1 0.1 0  1.12 0.1 0  1.14 0.1 0  1.16 0.1 0  1.18 0.1 0  1.2 0.1 0  1.22 0.1 0  1.24 0.1 0  1.26 0.1 0  1.28 0.1 0  1.3 0.1 0  1.32 0.1 0  1.34 0.1 0  1.36 0.1 0  1.38 0.1 0  1.4 0.1 0  1.42 0.1 0  1.44 0.1 0  1.46 0.1 0  1.48 0.1 0  1.5 0.1 0  1.52 0.1 0  1.54 0.1 0  1.56 0.1 0  1.58 0.1 0  1.6 0.1 0  1.62 0.1 0  1.64 0.1 0  1.66 0.1 0  1.68 0.1 0  1.7 0.1 0  1.72 0.1 0  1.74 0.1 0  1.76 0.1 0  1.78 0.1 0  1.8 0.1 0  1.82 0.1 0  1.84 0.1 0  1.86 0.1 0  1.88 0.1 0  1.9 0.1 0  1.92 0.1 0  1.94 0.1 0  1.96 0.1 0  1.98 0.1 0  2 0.1 0  0 0.12 0  0.02 0.12 0  0.04 0.12 0  0.06 0.12 0  0.08 0.12 0  0.1 0.12 0  0.12 0.12 0  0.14 0.12 0  0.16 0.12 0  0.18 0.12 0  0.2 0.12 0  0.22 0.12 0  0.24 0.12 0  0.26 0.12 0  0.28 0.12 0  0.3 0.12 0  0.32 0.12 0  0.34 0.12 0  0.36 0.12 0  0.38 0.12 0  0.4 0.12 0  0.42 0.12 0  0.44 0.12 0  0.46 0.12 0  0.48 0.12 0  0.5 0.12 0  0.52 0.12 0  0.54 0.12 0  0.5600000000000001 0.12 0  0.58 0.12 0  0.6 0.12 0  0.62 0.12 0  0.64 0.12 0  0.66 0.12 0  0.68 0.12 0  0.7 0.12 0  0.72 0.12 0  0.74 0.12 0  0.76 0.12 0  0.78 0.12 0  0.8 0.12 0  0.82 0.12 0  0.84 0.12 0  0.86 0.12 0  0.88 0.12 0  0.9 0.12 0  0.92 0.12 0  0.9399999999999999 0.12 0  0.96 0.12 0  0.98 0.12 0  1 0.12 0  1.02 0.12 0  1.04 0.12 0  1.06 0.12 0  1.08 0.12 0  1.1 0.12 0  1.12 0.12 0  1.14 0.12 0  1.16 0.12 0  1.18 0.12 0  1.2 0.12 0  1.22 0.12 0  1.24 0.12 0  1.26 0.12 0  1.28 0.12 0  1.3 0.12 0  1.32 0.12 0  1.34 0.12 0  1.36 0.12 0  1.38 0.12 0  1.4 0.12 0  1.42 0.12 0  1.44 0.12 0  1.46 0.12 0  1.48 0.12 0  1.5 0.12 0  1.52 0.12 0  1.54 0.12 0  1.56 0.12 0  1.58 0.12 0  1.6 0.12 0  1.62 0.12 0  1.64 0.12 0  1.66 0.12 0  1.68 0.12 0  1.7 0.12 0  1.72 0.12 0  1.74 0.12 0  1.76 0.12 0  1.78 0.12 0  1.8 0.12 0  1.82 0.12 0  1.84 0.12 0  1.86 0.12 0  1.88 0.12 0  1.9 0.12 0  1.92 0.12 0  1.94 0.12 0  1.96 0.12 0  1.98 0.12 0  2 0.12 0  0 0.14 0  0.02 0.14 0  0.04 0.14 0  0.06 0.14 0  0.08 0.14 0  0.1 0.14 0  0.12 0.14 0  0.14 0.14 0  0.16 0.14 0  0.18 0.14 0  0.2 0.14 0  0.22 0.14 0  0.24 0.14 0  0.26 0.14 0  0.28 0.14 0  0.3 0.14 0  0.32 0.14 0  0.34 0.14 0  0.36 0.14 0  0.38 0.14 0  0.4 0.14 0  0.42 0.14 0  0.44 0.14 0  0.46 0.14 0  0.48 0.14 0  0.5 0.14 0  0.52 0.14 0  0.54 0.14 0  0.5600000000000001 0.14 0  0.58 0.14 0  0.6 0.14 0  0.62 0.14 0  0.64 0.14 0  0.66 0.14 0  0.68 0.14 0  0.7 0.14 0  0.72 0.14 0  0.74 0.14 0  0.76 0.14 0  0.78 0.14 0  0.8 0.14 0  0.82 0.14 0  0.84 0.14 0  0.86 0.14 0  0.88 0.14 0  0.9 0.14 0  0.92 0.14 0  0.9399999999999999 0.14 0  0.96 0.14 0  0.98 0.14 0  1 0.14 0  1.02 0.14 0  1.04 0.14 0  1.06 0.14 0  1.08 0.14 0  1.1 0.14 0  1.12 0.14 0  1.14 0.14 0  1.16 0.14 0  1.18 0.14 0  1.2 0.14 0  1.22 0.14 0  1.24 0.14 0  1.26 0.14 0  1.28 0.14 0  1.3 0.14 0  1.32 0.14 0  1.34 0.14 0  1.36 0.14 0  1.38 0.14 0  1.4 0.14 0  1.42 0.14 0  1.44 0.14 0  1.46 0.14 0  1.48 0.14 0  1
[...]
<PointData  Scalars="sols[i]"> 
<DataArray  type="Float64"  Name="sols[i]"  format="ascii">2.5862641277496238e-03  1.7256561152033997e-03  1.7256561152033997e-03  1.7256561152033994e-03  1.7256561152033999e-03  1.7256561152034010e-03  1.7256561152034003e-03  1.7256561152034025e-03  1.7256561152034046e-03  1.7256561152034053e-03  1.7256561152034086e-03  1.7256561152034120e-03  1.7256561152034142e-03  1.7256561152034179e-03  1.7256561152034257e-03  1.7256561152034289e-03  1.7256561152034333e-03  1.7256561152034422e-03  1.7256561152034465e-03  1.7256561152034513e-03  1.7256561152034604e-03  1.7256561152034647e-03  1.7256561152034684e-03  1.7256561152034762e-03  1.7256561152034784e-03  1.7256561152034799e-03  1.7256561152034814e-03  1.7256561152034816e-03  1.7256561152034868e-03  1.7256561152034812e-03  1.7256561152034751e-03  1.7256561152034717e-03  1.7256561152034678e-03  1.7256561152034645e-03  1.7256561152034697e-03  1.7256561152034691e-03  1.7256561152034736e-03  1.7256561152034886e-03  1.7256561152035133e-03  1.7256561152035512e-03  1.7256561152036117e-03  1.7256561152036833e-03  1.7256561152037800e-03  1.7256561152039097e-03  1.7256561152040736e-03  1.7256561152042792e-03  1.7256561152045392e-03  1.7256561152048479e-03  1.7256561152052302e-03  1.7256561152057133e-03  1.7256561152063411e-03  1.7256561152072089e-03  1.7256561152085138e-03  1.7256561152106723e-03  1.7256561152145704e-03  1.7256561152220948e-03  1.7256561152372706e-03  1.7256561152685828e-03  1.7256561153340651e-03  1.7256561154716799e-03  1.7256561157610402e-03  1.7256561163683031e-03  1.7256561176382022e-03  1.7256561202812219e-03  1.7256561257505206e-03  1.7256561369923093e-03  1.7256561599196861e-03  1.7256562062614937e-03  1.7256562989644486e-03  1.7256564822008618e-03  1.7256568393826308e-03  1.7256575244275472e-03  1.7256588135145692e-03  1.7256611853890061e-03  1.7256654346919787e-03  1.7256728084645151e-03  1.7256851215443293e-03  1.7257047446437729e-03  1.7257342812064692e-03  1.7257757214068589e-03  1.7258290363182764e-03  1.7258907196728681e-03  1.7259535091400102e-03  1.7260083293836894e-03  1.7260471923458587e-03  1.7260638287940873e-03  1.7260532137524259e-03  1.7260151270434125e-03  1.7259575667274505e-03  1.7258928257939726e-03  1.7258313501467221e-03  1.7257791968302164e-03  1.7257385292151189e-03  1.7257089423248406e-03  1.7256886704501990e-03  1.7256754970109290e-03  1.7256673361028161e-03  1.7256625151299213e-03  1.7256598457267636e-03  1.7256585888632847e-03  5.1592715308624720e-03  1.7256561152033997e-03  8.6356688009684487e-04  8.6356688009684487e-04  8.6356688009684498e-04  8.6356688009684498e-04  8.6356688009684563e-04  8.6356688009684552e-04  8.6356688009684606e-04  8.6356688009684736e-04  8.6356688009684758e-04  8.6356688009684877e-04  8.6356688009685051e-04  8.6356688009685148e-04  8.6356688009685246e-04  8.6356688009685560e-04  8.6356688009685766e-04  8.6356688009685896e-04  8.6356688009686243e-04  8.6356688009686482e-04  8.6356688009686644e-04  8.6356688009687002e-04  8.6356688009687251e-04  8.6356688009687382e-04  8.6356688009687674e-04  8.6356688009687848e-04  8.6356688009687869e-04  8.6356688009687967e-04  8.6356688009688010e-04  8.6356688009688271e-04  8.6356688009688216e-04  8.6356688009687945e-04  8.6356688009687891e-04  8.6356688009687869e-04  8.6356688009687902e-04  8.6356688009688303e-04  8.6356688009688618e-04  8.6356688009688954e-04  8.6356688009689897e-04  8.6356688009691285e-04  8.6356688009693269e-04  8.6356688009696229e-04  8.6356688009699861e-04  8.6356688009704360e-04  8.6356688009710421e-04  8.6356688009718043e-04  8.6356688009727486e-04  8.6356688009739347e-04  8.6356688009753572e-04  8.6356688009770876e-04  8.6356688009792918e-04  8.6356688009821758e-04  8.6356688009862003e-04  8.6356688009923347e-04  8.6356688010026271e-04  8.6356688010214499e-04  8.6356688010581458e-04  8.6356688011327064e-04  8.6356688012875185e-04  8.6356688016128269e-04  8.6356688022997590e-04  8.6356688037510763e-04  8.6356688068122832e-04  8.6356688132490256e-04  8.6356688267269109e-04  8.6356688548051223e-04  8.6356689129522693e-04  8.6356690325410114e-04  8.6356692765424646e-04  8.6356697698238829e-04  8.6356707564579234e-04  8.6356727054341849e-04  8.6356764995653432e-04  8.6356837594627714e-04  8.6356973691613782e-04  8.6357222636333699e-04  8.6357664683019023e-04  8.6358421697406906e-04  8.6359661487898042e-04  8.6361582094035018e-04  8.6364356510197757e-04  8.6368025823454553e-04  8.6372370191912173e-04  8.6376862356133191e-04  8.6380823597085753e-04  8.6383690272950030e-04  8.6385034654758771e-04  8.6384422877675004e-04  8.6381744234395130e-04  8.6377607611129784e-04  8.6372979140812581e-04  8.6368636918880324e-04  8.6364998414375355e-04  8.6362194536104516e-04  8.6360178966276375e-04  8.6358815132822598e-04  8.6357940055248295e-04  8.6357404494331023e-04  8.6357091251386680e-04  8.6356918250962407e-04  8.6356834219709943e-04  1.7256584764694229e-03  1.7256561152033997e-03  8.6356688009684487e-04  8.6356688009684519e-04  8.6356688009684508e-04  8.6356688009684508e-04  8.6356688009684573e-04  8.6356688009684552e-04  8.6356688009684606e-04  8.6356688009684725e-04  8.6356688009684725e-04  8.6356688009684801e-04  8.6356688009684942e-04  8.6356688009685007e-04  8.6356688009685061e-04  8.6356688009685332e-04  8.6356688009685463e-04  8.6356688009685495e-04  8.6356688009685777e-04  8.6356688009685940e-04  8.6356688009686005e-04  8.6356688009686287e-04  8.6356688009686438e-04  8.6356688009686482e-04  8.6356688009686753e-04  8.6356688009686883e-04  8.6356688009686894e-04  8.6356688009687024e-04  8.6356688009687165e-04  8.6356688009687566e-04  8.6356688009687739e-04  8.6356688009687750e-04  8.6356688009688054e-04  8.6356688009688466e-04  8.6356688009688997e-04  8.6356688009689984e-04  8.6356688009690938e-04  8.6356688009691946e-04  8.6356688009693540e-04  8.6356688009695567e-04  8.6356688009698137e-04  8.6356688009701585e-04  8.6356688009705542e-04  8.6356688009710171e-04  8.6356688009716135e-04  8.6356688009723334e-04  8.6356688009732018e-04  8.6356688009742719e-04  8.6356688009755404e-04  8.6356688009770854e-04  8.6356688009790814e-04  8.6356688009817768e-04  8.6356688009857319e-04  8.6356688009921222e-04  8.6356688010034836e-04  8.6356688010252522e-04  8.6356688010691374e-04  8.6356688011603535e-04  8.6356688013528222e-04  8.6356688017622256e-04  8.6356688026357348e-04  8.6356688044994035e-04  8.6356688084695936e-04  8.6356688169058032e-04  8.6356688347724315e-04  8.6356688724602922e-04  8.6356689515871101e-04  8.6356691168121497e-04  8.6356694596351018e-04  8.6356701656959117e-04  8.6356716072464711e-04  8.6356745202649055e-04  8.6356803349659720e-04  8.6356917719922883e-04  8.6357138697865034e-04  8.6357556438670577e-04  8.6358325126525688e-04  8.6359692673515672e-04  8.6362023844546926e-04  8.6365785398307326e-04  8.6371436433670741e-04  8.6379165425497023e-04  8.6388514821243842e-04  8.6398196675781269e-04  8.6406565314545917e-04  8.6412511811315845e-04  8.6415319603506133e-04  8.6413762601623945e-04  8.6407329277662253e-04  8.6397786051255773e-04  8.6387684100993679e-04  8.6378697577296640e-04  8.6371498268754106e-04  8.6366169115230764e-04  8.6362487814689863e-04  8.6360096499748574e-04  8.6358624094026325e-04  8.6357758518640002e-04  8.6357271028504557e-04  8.6357010653702229e-04  8.6356887574697970e-04  1.7256592204362433e-03  1.7256561152033994e-03  8.6356688009684498e-04  8.6356688009684508e-04  8.6356688009684530e-04  8.6356688009684541e-04  8.6356688009684595e-04  8.6356688009684584e-04  8.6356688009684606e-04  8.6356688009684725e-04  8.6356688009684704e-04  8.6356688009684758e-04  8.6356688009684899e-04  8.6356688009684899e-04  8.6356688009684920e-04  8.6356688009685105e-04  8.6356688009685202e-04  8.6356688009685181e-04  8.6356688009685376e-04  8.6356688009685484e-04  8.6356688009685473e-04  8.6356688009685701e-04  8.6356688009685820e-04  8.6356688009685831e-04  8.6356688009686070e-04  8.6356688009686276e-04  8.6356688009686373e-04  8.6356688009686644e-04  8.6356688009687013e-04  8.6356688009687718e-04  8.6356688009688336e-04  8.6356688009688856e-04  8.6356688009689832e-04  8.6356688009691024e-04  8.6356688009692488e-04  8.6356688009694483e-04  8.6356688009696532e-04  8.6356688009698701e-04  8.6356688009701498e-04  8.6356688009704696e-04  8.6356688009708372e-04  8.6356688009712795e-04  8.6356688009717566e-04  8.6356688009722781e-04  8.6356688009729004e-04  8.6356688009736171e-04  8.6356688009744465e-04  8.6356688009754385e-04  8.6356688009765943e-04  8.6356688009779951e-04  8.6356688009798566e-04  8.6356688009824934e-04  8.6356688009866221e-04  8.6356688009937789e-04  8.6356688010072870e-04  8.6356688010343443e-04  8.6356688010905634e-04  8.6356688012098051e-04  8.6356688014651835e-04  8.6356688020148447e-04  8.6356688032000002e-04  8.6356688057547112e-04  8.6356688112550325e-04  8.6356688230751271e-04  8.6356688484153952e-04  8.6356689025836667e-04  8.6356690179804137e-04  8.6356692628262891e-04  8.6356697798672759e-04  8.6356708655437682e-04  8.6356731298510407e-04  8.6356778139261227e-04  8.6356874079406053e-04  8.6357068207689217e-04  8.6357455136738728e-04  8.6358211946837974e-04  8.6359657331815944e-04  8.6362334634083795e-04  8.6367100207080673e-04  8.6375146691497311e-04  8.6387796986119665e-04  8.6405826222585931e-04  8.6428271927100383e-04  8.6451615147925044e-04  8.6471261273494504e-04  8.6484988982942651e-04  8.6492026975112598e-04  8.6488273562557345e-04  8.6471265356483681e-04  8.6446840629005625e-04  8.6422490473011290e-04  8.6401962391824036e-04  8.6386177258488501e-04  8.6374912787295162e-04  8.6367427506942615e-04  8.6362763449060671e-04  8.6360011851000732e-04  8.6358460669393893e-04  8.6357620644019969e-04  8.6357187124207777e-04  8.6356987491530699e-04  1.7256606794947920e-03  1.7256561152033997e-03  8.6356688009684498e-04  8.6356688009684508e-04  8.6356688009684519e-04  8.6356688009684530e-04  8.6356688009684595e-04  8.6356688009684584e-04  8.6356688009684606e-04  8.6356688009684714e-04  8.6356688009684693e-04  8.6356688009684725e-04  8.6356688009684845e-04  8.6356688009684812e-04  8.6356688009684801e-04  8.6356688009684964e-04  8.6356688009685018e-04  8.6356688009684942e-04  8.6356688009685126e-04  8.6356688009685191e-04  8.6356688009685159e-04  8.6356688009685365e-04  8.6356688009685506e-04  8.6356688009685560e-04  8.6356688009685907e-04  8.6356688009686232e-04  8.6356688009686590e-04  8.6356688009687219e-04  8.6356688009688075e-04  8.6356688009689442e-04  8.6356688009690894e-04  8.6356688009692477e-04  8.6356688009694754e-04  8.6356688009697465e-04  8.6356688009700674e-04  8.6356688009704610e-04  8.6356688009708784e-04  8.6356688009713164e-04  8.6356688009718195e-04  8.6356688009723616e-04  8.6356688009729394e-04  8.6356688009735759e-04  8.6356688009742210e-04  8.6356688009748747e-04  8.6356688009755936e-04  8.6356688009763601e-04  8.6356688009771917e-04  8.6356688009781404e-04  8.6356688009792148e-04  8.6356688009805169e-04  8.6356688009823167e-04  8.6356688009850337e-04  8.6356688009896286e-04  8.6356688009981699e-04  8.6356688010151659e-04  8.6356688010504360e-04  8.6356688011254151e-04  8.6356688012869125e-04  8.6356688016367737e-04  8.6356688023969870e-04  8.6356688040505124e-04  8.6356688076461192e-04  8.6356688154583380e-04  8.6356688324108874e-04  8.6356688691395717e-04  8.6356689485614488e-04  8.6356691199083774e-04  8.6356694885615269e-04  8.6356702790975695e-04  8.6356719675189622e-04  8.6356755559591539e-04  8.6356831364578577e-04  8.6356990297780354e-04  8.6357320379154860e-04  8.6357997737862222e-04  8.6359366548890743e-04  8.6362078047450637e-04  8.6367310019809236e-04  8.6377055447753553e-04  8.6394348573590272e-04  8.6422997125346025e-04  8.6465928681577582e-04  8.6521406149625796e-04  8.6579391058635069e-04  8.6625972379443994e-04  8.6657509013854264e-04  8.6676690284236385e-04  8.6668634819385155e-04  8.6621917085431366e-04  8.6557601666115505e-04  8.6498281268724707e-04  8.6451141510021168e-04  8.6416208091697757e-04  8.6392118111314436e-04  8.6376747921772040e-04  8.6367591977962546e-04  8.6362430650169437e-04  8.6359644321576184e-04  8.6358193538586510e-04  8.6357469437951242e-04  8.6357143955759371e-04  1.7256629794386736e-03  1.7256561152034010e-03  8.6356688009684552e-04  8.6356688009684563e-04  8.6356688009684584e-04  8.6356688009684595e-04  8.6356688009684639e-04  8.6356688009684628e-04  8.6356688009684660e-04  8.6356688009684758e-04  8.6356688009684725e-04  8.6356688009684758e-04  8.6356688009684866e-04  8.6356688009684812e-04  8.6356688009684779e-04  8.6356688009684931e-04  8.6356688009684953e-04  8.6356688009684888e-04  8.6356688009685051e-04  8.6356688009685116e-04  8.6356688009685094e-04  8.6356688009685365e-04  8.6356688009685593e-04  8.6356688009685809e-04  8.6356688009686417e-04  8.6356688009687132e-04  8.6356688009688054e-04  8.6356688009689463e-04  8.6356688009691371e-04  8.6356688009694136e-04  8.6356688009697389e-04  8.6356688009701227e-04  8.6356688009706203e-04  8.6356688009712134e-04  8.6356688009718997e-04  8.6356688009726987e-04  8.6356688009735531e-04  8.6356688009744486e-04  8.6356688009754168e-04  8.6356688009764154e-04  8.6356688009774237e-04  8.6356688009784504e-04  8.6356688009794360e-04  8.6356688009803651e-04  8.6356688009812802e-04  8.6356688009821595e-04  8.6356688009830160e-04  8.6356688009839061e-04  8.6356688009848537e-04  8.6356688009860062e-04  8.6356688009876987e-04  8.6356688009905209e-04  8.6356688009957814e-04  8.6356688010063134e-04  8.6356688010282977e-04  8.6356688010752708e-04  8.6356688011769245e-04  8.6356688013984140e-04  8.6356688018823953e-04  8.6356688029416533e-04  8.6356688052611574e-04  8.6356688103392438e-04  8.6356688214511582e-04  8.6356688457487230e-04  8.6356688988299007e-04  8.6356690146648834e-04  8.6356692671075888e-04  8.6356698163784454e-04  8.6356710091321494e-04  8.6356735928534679e-04  8.6356791723563291e-04  8.6356911738979625e-04  8.6357168594783850e-04  8.6357714743709782e-04  8.6358866171823130e-04  8.6361266560055659e-04  8.6366195909169262e-04  8.6376113117402422e-04  8.6395502755843396e-04  8.6431884623838751e-04  8.6496031276783411e-04  8.6598428771654838e-04  8.6737377205569688e-04  8.6883054630638144e-04  8.6988986459921903e-04  8.7051682483854924e-04  8.7103087523621734e-04  8.7092790828135981e-04  8.6965939719583878e-04  8.6798125761268095e-04  8.6657368936348311e-04  8.6551760630762390e-04  8.6475356133925514e-04  8.6424317518060266e-04  8.6393265127860709e-04  8.6375720037124362e-04  8.6366322820170544e-04  8.6361478818352926e-04  8.6359055263524683e-04  8.6357884339206923e-04  8.6357369732870462e-04  1.7256662987911546e-03  1.7256561152034003e-03  8.6356688009684530e-04  8.6356688009684541e-04  8.6356688009684552e-04  8.6356688009684573e-04  8.6356688009684628e-04  8.6356688009684617e-04  8.6356688009684639e-04  8.6356688009684736e-04  8.6356688009684704e-04  8.6356688009684725e-04  8.6356688009684801e-04  8.6356688009684769e-04  8.6356688009684725e-04  8.6356688009684877e-04  8.6356688009684910e-04  8.6356688009684812e-04  8.6356688009685029e-04  8.6356688009685148e-04  8.6356688009685202e-04  8.6356688009685636e-04  8.6356688009686113e-04  8.6356688009686709e-04  8.6356688009687935e-04  8.6356688009689496e-04  8.6356688009691632e-04  8.6356688009694754e-04  8.6356688009698983e-04  8.6356688009704816e-04  8.6356688009712004e-04  8.6356688009720742e-04  8.6356688009731693e-04  8.6356688009744660e-04  8.6356688009759579e-04  8.6356688009776514e-04  8.6356688009794696e-04  8.6356688009813659e-04  8.6356688009833445e-04  8.6356688009853275e-04  8.6356688009872607e-04  8.6356688009891244e-04  8.6356688009908190e-04  8.6356688009923076e-04  8.6356688009936130e-04  8.6356688009946929e-04  8.6356688009955559e-04  8.6356688009962704e-04  8.6356688009968851e-04  8.6356688009976072e-04  8.6356688009988963e-04  8.6356688010015841e-04  8.6356688010074724e-04  8.6356688010204546e-04  8.6356688010490255e-04  8.6356688011118322e-04  8.6356688012499043e-04  8.6356688015536208e-04  8.6356688022217604e-04  8.6356688036920719e-04  8.6356688069277984e-04  8.6356688140472228e-04  8.6356688297074455e-04  8.6356688641425977e-04  8.6356689398318866e-04  8.6356691061236868e-04  8.6356694712792922e-04  8.6356702726006257e-04  8.6356720296522306e-04  8.6356758782844725e-04  8.6356842965618367e-04  8.6357026757349659e-04  8.6357427000325650e-04  8.6358295584015800e-04  8.6360171540933537e-04  8.6364196418502886e-04  8.6372751732212275e-04  8.6390696469073149e-04  8.6427608171552484e-04  8.6501298082379281e-04  8.6640957872813709e-04  8.6879576472969375e-04  8.7214151062056221e-04  8.7551696295165896e-04  8.7747139295866854e-04  8.7792879343116391e-04  1.3291066048702542e-03  1.7878319145008506e-03  1.3231492665370143e-03  8.7240480788220137e-04  8.6957692185952648e-04  8.6747596093294361e-04  8.6587819142519226e-04  8.6481641272536682e-04  8.6420698168927855e-04  8.6388432065053887e-04  8.6372125274777520e-04  8.6364117568425280e-04  8.6360264422473691e-04  8.6358457594525170e-04  8.6357678978437843e-04  1.7256708528981977e-03  1.7256561152034023e-03  8.6356688009684606e-04  8.6356688009684606e-04  8.6356688009684595e-04  8.6356688009684595e-04  8.6356688009684649e-04  8.6356688009684639e-04  8.6356688009684671e-04  8.6356688009684747e-04  8.6356688009684714e-04  8.6356688009684736e-04  8.6356688009684801e-04  8.6356688009684769e-04  8.6356688009684736e-04  8.6356688009684866e-04  8.6356688009684931e-04  8.6356688009684899e-04  8.6356688009685159e-04  8.6356688009685408e-04  8.6356688009685701e-04  8.6356688009686471e-04  8.6356688009687523e-04  8.6356688009688975e-04  8.6356688009691447e-04  8.6356688009694928e-04  8.6356688009699741e-04  8.6356688009706615e-04  8.6356688009715961e-04  8.6356688009728560e-04  8.6356688009744508e-04  8.6356688009764284e-04  8.6356688009788668e-04  8.6356688009817529e-04  8.6356688009850662e-04  8.6356688009887829e-04  8.6356688009927738e-04  8.6356688009969317e-04  8.6356688010011807e-04  8.6356688010053647e-04  8.6356688010093556e-04  8.6356688010130517e-04  8.6356688010162923e-04  8.6356688010189768e-04  8.6356688010210748e-04  8.6356688010225135e-04  8.6356688010232833e-04  8.6356688010234654e-04  8.6356688010231651e-04  8.6356688010226967e-04  8.6356688010227162e-04  8.6356688010244152e-04  8.6356688010303035e-04  8.6356688010457382e-04  8.6356688010823550e-04  8.6356688011657117e-04  8.6356688013521229e-04  8.6356688017659715e-04  8.6356688026817104e-04  8.6356688047055494e-04  8.6356688091758927e-04  8.6356688190466710e-04  8.6356688408372731e-04  8.6356688889351366e-04  8.6356689950919431e-04  8.6356692293858826e-04  8.6356697465029999e-04  8.6356708879349727e-04  8.6356734076657791e-04  8.6356789705117692e-04  8.6356912520840453e-04  8.6357183646797013e-04  8.6357781994637417e-04  8.6359101617209787e-04  8.6362008481845841e-04  8.6368398811099382e-04  8.6382401191082141e-04  8.6412922983412791e-04  8.6478890351640884e-04  8.6619284787757057e-04  8.6904296678322421e-04  8.7405040548359562e-04  8.8082013851810284e-04  1.3482187407741887e-03  1.8305801977606089e-03  1.8218294189594167e-03  2.7668780610375296e-03  9.5813575837881226e-01  9.5504707607802952e-01  2.7057740503135573e-03  1.7639173103050760e-03  1.3101966037130093e-03  8.6777186644604386e-04  8.6575438934503716e-04  8.6462157415562581e-04  8.6406468527310443e-04  8.6380020574213206e-04  8.6367622861341831e-04  8.6361854596872175e-04  8.6359211960915293e-04  8.6358088981150450e-04  1.7256769291077293e-03  1.7256561152034038e-03  8.6356688009684704e-04  8.6356688009684693e-04  8.6356688009684704e-04  8.6356688009684693e-04  8.6356688009684747e-04  8.6356688009684714e-04  8.6356688009684736e-04  8.6356688009684823e-04  8.6356688009684769e-04  8.6356688009684790e-04  8.6356688009684888e-04  8.6356688009684845e-04  8.6356688009684812e-04  8.6356688009684996e-04  8.6356688009685094e-04  8.6356688009685170e-04  8.6356688009685603e-04  8.6356688009686124e-04  8.6356688009686905e-04  8.6356688009688433e-04  8.63566880096