<?xml version="1.0"?>
<VTKFile type="UnstructuredGrid"  version="0.1"  >
<UnstructuredGrid>
<Piece  NumberOfPoints="5151" NumberOfCells="10000">
<Points>
<DataArray  type="Float64"  NumberOfComponents="3"  format="ascii">0 0 0  0.02 0 0  0.04 0 0  0.06 0 0  0.08 0 0  0.1 0 0  0.12 0 0  0.14 0 0  0.16 0 0  0.18 0 0  0.2 0 0  0.22 0 0  0.24 0 0  0.26 0 0  0.28 0 0  0.3 0 0  0.32 0 0  0.34 0 0  0.36 0 0  0.38 0 0  0.4 0 0  0.42 0 0  0.44 0 0  0.46 0 0  0.48 0 0  0.5 0 0  0.52 0 0  0.54 0 0  0.5600000000000001 0 0  0.58 0 0  0.6 0 0  0.62 0 0  0.64 0 0  0.66 0 0  0.68 0 0  0.7 0 0  0.72 0 0  0.74 0 0  0.76 0 0  0.78 0 0  0.8 0 0  0.82 0 0  0.84 0 0  0.86 0 0  0.88 0 0  0.9 0 0  0.92 0 0  0.9399999999999999 0 0  0.96 0 0  0.98 0 0  1 0 0  1.02 0 0  1.04 0 0  1.06 0 0  1.08 0 0  1.1 0 0  1.12 0 0  1.14 0 0  1.16 0 0  1.18 0 0  1.2 0 0  1.22 0 0  1.24 0 0  1.26 0 0  1.28 0 0  1.3 0 0  1.32 0 0  1.34 0 0  1.36 0 0  1.38 0 0  1.4 0 0  1.42 0 0  1.44 0 0  1.46 0 0  1.48 0 0  1.5 0 0  1.52 0 0  1.54 0 0  1.56 0 0  1.58 0 0  1.6 0 0  1.62 0 0  1.64 0 0  1.66 0 0  1.68 0 0  1.7 0 0  1.72 0 0  1.74 0 0  1.76 0 0  1.78 0 0  1.8 0 0  1.82 0 0  1.84 0 0  1.86 0 0  1.88 0 0  1.9 0 0  1.92 0 0  1.94 0 0  1.96 0 0  1.98 0 0  2 0 0  0 0.02 0  0.02 0.02 0  0.04 0.02 0  0.06 0.02 0  0.08 0.02 0  0.1 0.02 0  0.12 0.02 0  0.14 0.02 0  0.16 0.02 0  0.18 0.02 0  0.2 0.02 0  0.22 0.02 0  0.24 0.02 0  0.26 0.02 0  0.28 0.02 0  0.3 0.02 0  0.32 0.02 0  0.34 0.02 0  0.36 0.02 0  0.38 0.02 0  0.4 0.02 0  0.42 0.02 0  0.44 0.02 0  0.46 0.02 0  0.48 0.02 0  0.5 0.02 0  0.52 0.02 0  0.54 0.02 0  0.5600000000000001 0.02 0  0.58 0.02 0  0.6 0.02 0  0.62 0.02 0  0.64 0.02 0  0.66 0.02 0  0.68 0.02 0  0.7 0.02 0  0.72 0.02 0  0.74 0.02 0  0.76 0.02 0  0.78 0.02 0  0.8 0.02 0  0.82 0.02 0  0.84 0.02 0  0.86 0.02 0  0.88 0.02 0  0.9 0.02 0  0.92 0.02 0  0.9399999999999999 0.02 0  0.96 0.02 0  0.98 0.02 0  1 0.02 0  1.02 0.02 0  1.04 0.02 0  1.06 0.02 0  1.08 0.02 0  1.1 0.02 0  1.12 0.02 0  1.14 0.02 0  1.16 0.02 0  1.18 0.02 0  1.2 0.02 0  1.22 0.02 0  1.24 0.02 0  1.26 0.02 0  1.28 0.02 0  1.3 0.02 0  1.32 0.02 0  1.34 0.02 0  1.36 0.02 0  1.38 0.02 0  1.4 0.02 0  1.42 0.02 0  1.44 0.02 0  1.46 0.02 0  1.48 0.02 0  1.5 0.02 0  1.52 0.02 0  1.54 0.02 0  1.56 0.02 0  1.58 0.02 0  1.6 0.02 0  1.62 0.02 0  1.64 0.02 0  1.66 0.02 0  1.68 0.02 0  1.7 0.02 0  1.72 0.02 0  1.74 0.02 0  1.76 0.02 0  1.78 0.02 0  1.8 0.02 0  1.82 0.02 0  1.84 0.02 0  1.86 0.02 0  1.88 0.02 0  1.9 0.02 0  1.92 0.02 0  1.94 0.02 0  1.96 0.02 0  1.98 0.02 0  2 0.02 0  0 0.04 0  0.02 0.04 0  0.04 0.04 0  0.06 0.04 0  0.08 0.04 0  0.1 0.04 0  0.12 0.04 0  0.14 0.04 0  0.16 0.04 0  0.18 0.04 0  0.2 0.04 0  0.22 0.04 0  0.24 0.04 0  0.26 0.04 0  0.28 0.04 0  0.3 0.04 0  0.32 0.04 0  0.34 0.04 0  0.36 0.04 0  0.38 0.04 0  0.4 0.04 0  0.42 0.04 0  0.44 0.04 0  0.46 0.04 0  0.48 0.04 0  0.5 0.04 0  0.52 0.04 0  0.54 0.04 0  0.5600000000000001 0.04 0  0.58 0.04 0  0.6 0.04 0  0.62 0.04 0  0.64 0.04 0  0.66 0.04 0  0.68 0.04 0  0.7 0.04 0  0.72 0.04 0  0.74 0.04 0  0.76 0.04 0  0.78 0.04 0  0.8 0.04 0  0.82 0.04 0  0.84 0.04 0  0.86 0.04 0  0.88 0.04 0  0.9 0.04 0  0.92 0.04 0  0.9399999999999999 0.04 0  0.96 0.04 0  0.98 0.04 0  1 0.04 0  1.02 0.04 0  1.04 0.04 0  1.06 0.04 0  1.08 0.04 0  1.1 0.04 0  1.12 0.04 0  1.14 0.04 0  1.16 0.04 0  1.18 0.04 0  1.2 0.04 0  1.22 0.04 0  1.24 0.04 0  1.26 0.04 0  1.28 0.04 0  1.3 0.04 0  1.32 0.04 0  1.34 0.04 0  1.36 0.04 0  1.38 0.04 0  1.4 0.04 0  1.42 0.04 0  1.44 0.04 0  1.46 0.04 0  1.48 0.04 0  1.5 0.04 0  1.52 0.04 0  1.54 0.04 0  1.56 0.04 0  1.58 0.04 0  1.6 0.04 0  1.62 0.04 0  1.64 0.04 0  1.66 0.04 0  1.68 0.04 0  1.7 0.04 0  1.72 0.04 0  1.74 0.04 0  1.76 0.04 0  1.78 0.04 0  1.8 0.04 0  1.82 0.04 0  1.84 0.04 0  1.86 0.04 0  1.88 0.04 0  1.9 0.04 0  1.92 0.04 0  1.94 0.04 0  1.96 0.04 0  1.98 0.04 0  2 0.04 0  0 0.06 0  0.02 0.06 0  0.04 0.06 0  0.06 0.06 0  0.08 0.06 0  0.1 0.06 0  0.12 0.06 0  0.14 0.06 0  0.16 0.06 0  0.18 0.06 0  0.2 0.06 0  0.22 0.06 0  0.24 0.06 0  0.26 0.06 0  0.28 0.06 0  0.3 0.06 0  0.32 0.06 0  0.34 0.06 0  0.36 0.06 0  0.38 0.06 0  0.4 0.06 0  0.42 0.06 0  0.44 0.06 0  0.46 0.06 0  0.48 0.06 0  0.5 0.06 0  0.52 0.06 0  0.54 0.06 0  0.5600000000000001 0.06 0  0.58 0.06 0  0.6 0.06 0  0.62 0.06 0  0.64 0.06 0  0.66 0.06 0  0.68 0.06 0  0.7 0.06 0  0.72 0.06 0  0.74 0.06 0  0.76 0.06 0  0.78 0.06 0  0.8 0.06 0  0.82 0.06 0  0.84 0.06 0  0.86 0.06 0  0.88 0.06 0  0.9 0.06 0  0.92 0.06 0  0.9399999999999999 0.06 0  0.96 0.06 0  0.98 0.06 0  1 0.06 0  1.02 0.06 0  1.04 0.06 0  1.06 0.06 0  1.08 0.06 0  1.1 0.06 0  1.12 0.06 0  1.14 0.06 0  1.16 0.06 0  1.18 0.06 0  1.2 0.06 0  1.22 0.06 0  1.24 0.06 0  1.26 0.06 0  1.28 0.06 0  1.3 0.06 0  1.32 0.06 0  1.34 0.06 0  1.36 0.06 0  1.38 0.06 0  1.4 0.06 0  1.42 0.06 0  1.44 0.06 0  1.46 0.06 0  1.48 0.06 0  1.5 0.06 0  1.52 0.06 0  1.54 0.06 0  1.56 0.06 0  1.58 0.06 0  1.6 0.06 0  1.62 0.06 0  1.64 0.06 0  1.66 0.06 0  1.68 0.06 0  1.7 0.06 0  1.72 0.06 0  1.74 0.06 0  1.76 0.06 0  1.78 0.06 0  1.8 0.06 0  1.82 0.06 0  1.84 0.06 0  1.86 0.06 0  1.88 0.06 0  1.9 0.06 0  1.92 0.06 0  1.94 0.06 0  1.96 0.06 0  1.98 0.06 0  2 0.06 0  0 0.08 0  0.02 0.08 0  0.04 0.08 0  0.06 0.08 0  0.08 0.08 0  0.1 0.08 0  0.12 0.08 0  0.14 0.08 0  0.16 0.08 0  0.18 0.08 0  0.2 0.08 0  0.22 0.08 0  0.24 0.08 0  0.26 0.08 0  0.28 0.08 0  0.3 0.08 0  0.32 0.08 0  0.34 0.08 0  0.36 0.08 0  0.38 0.08 0  0.4 0.08 0  0.42 0.08 0  0.44 0.08 0  0.46 0.08 0  0.48 0.08 0  0.5 0.08 0  0.52 0.08 0  0.54 0.08 0  0.5600000000000001 0.08 0  0.58 0.08 0  0.6 0.08 0  0.62 0.08 0  0.64 0.08 0  0.66 0.08 0  0.68 0.08 0  0.7 0.08 0  0.72 0.08 0  0.74 0.08 0  0.76 0.08 0  0.78 0.08 0  0.8 0.08 0  0.82 0.08 0  0.84 0.08 0  0.86 0.08 0  0.88 0.08 0  0.9 0.08 0  0.92 0.08 0  0.9399999999999999 0.08 0  0.96 0.08 0  0.98 0.08 0  1 0.08 0  1.02 0.08 0  1.04 0.08 0  1.06 0.08 0  1.08 0.08 0  1.1 0.08 0  1.12 0.08 0  1.14 0.08 0  1.16 0.08 0  1.18 0.08 0  1.2 0.08 0  1.22 0.08 0  1.24 0.08 0  1.26 0.08 0  1.28 0.08 0  1.3 0.08 0  1.32 0.08 0  1.34 0.08 0  1.36 0.08 0  1.38 0.08 0  1.4 0.08 0  1.42 0.08 0  1.44 0.08 0  1.46 0.08 0  1.48 0.08 0  1.5 0.08 0  1.52 0.08 0  1.54 0.08 0  1.56 0.08 0  1.58 0.08 0  1.6 0.08 0  1.62 0.08 0  1.64 0.08 0  1.66 0.08 0  1.68 0.08 0  1.7 0.08 0  1.72 0.08 0  1.74 0.08 0  1.76 0.08 0  1.78 0.08 0  1.8 0.08 0  1.82 0.08 0  1.84 0.08 0  1.86 0.08 0  1.88 0.08 0  1.9 0.08 0  1.92 0.08 0  1.94 0.08 0  1.96 0.08 0  1.98 0.08 0  2 0.08 0  0 0.1 0  0.02 0.1 0  0.04 0.1 0  0.06 0.1 0  0.08 0.1 0  0.1 0.1 0  0.12 0.1 0  0.14 0.1 0  0.16 0.1 0  0.18 0.1 0  0.2 0.1 0  0.22 0.1 0  0.24 0.1 0  0.26 0.1 0  0.28 0.1 0  0.3 0.1 0  0.32 0.1 0  0.34 0.1 0  0.36 0.1 0  0.38 0.1 0  0.4 0.1 0  0.42 0.1 0  0.44 0.1 0  0.46 0.1 0  0.48 0.1 0  0.5 0.1 0  0.52 0.1 0  0.54 0.1 0  0.5600000000000001 0.1 0  0.58 0.1 0  0.6 0.1 0  0.62 0.1 0  0.64 0.1 0  0.66 0.1 0  0.68 0.1 0  0.7 0.1 0  0.72 0.1 0  0.74 0.1 0  0.76 0.1 0  0.78 0.1 0  0.8 0.1 0  0.82 0.1 0  0.84 0.1 0  0.86 0.1 0  0.88 0.1 0  0.9 0.1 0  0.92 0.1 0  0.9399999999999999 0.1 0  0.96 0.1 0  0.98 0.1 0  1 0.1 0  1.02 0.1 0  1.04 0.1 0  1.06 0.1 0  1.08 0.1 0  1.1 0.1 0  1.12 0.1 0  1.14 0.1 0  1.16 0.1 0  1.18 0.1 0  1.2 0.1 0  1.22 0.1 0  1.24 0.1 0  1.26 0.1 0  1.28 0.1 0  1.3 0.1 0  1.32 0.1 0  1.34 0.1 0  1.36 0.1 0  1.38 0.1 0  1.4 0.1 0  1.42 0.1 0  1.44 0.1 0  1.46 0.1 0  1.48 0.1 0  1.5 0.1 0  1.52 0.1 0  1.54 0.1 0  1.56 0.1 0  1.58 0.1 0  1.6 0.1 0  1.62 0.1 0  1.64 0.1 0  1.66 0.1 0  1.68 0.1 0  1.7 0.1 0  1.72 0.1 0  1.74 0.1 0  1.76 0.1 0  1.78 0.1 0  1.8 0.1 0  1.82 0.1 0  1.84 0.1 0  1.86 0.1 0  1.88 0.1 0  1.9 0.1 0  1.92 0.1 0  1.94 0.1 0  1.96 0.1 0  1.98 0.1 0  2 0.1 0  0 0.12 0  0.02 0.12 0  0.04 0.12 0  0.06 0.12 0  0.08 0.12 0  0.1 0.12 0  0.12 0.12 0  0.14 0.12 0  0.16 0.12 0  0.18 0.12 0  0.2 0.12 0  0.22 0.12 0  0.24 0.12 0  0.26 0.12 0  0.28 0.12 0  0.3 0.12 0  0.32 0.12 0  0.34 0.12 0  0.36 0.12 0  0.38 0.12 0  0.4 0.12 0  0.42 0.12 0  0.44 0.12 0  0.46 0.12 0  0.48 0.12 0  0.5 0.12 0  0.52 0.12 0  0.54 0.12 0  0.5600000000000001 0.12 0  0.58 0.12 0  0.6 0.12 0  0.62 0.12 0  0.64 0.12 0  0.66 0.12 0  0.68 0.12 0  0.7 0.12 0  0.72 0.12 0  0.74 0.12 0  0.76 0.12 0  0.78 0.12 0  0.8 0.12 0  0.82 0.12 0  0.84 0.12 0  0.86 0.12 0  0.88 0.12 0  0.9 0.12 0  0.92 0.12 0  0.9399999999999999 0.12 0  0.96 0.12 0  0.98 0.12 0  1 0.12 0  1.02 0.12 0  1.04 0.12 0  1.06 0.12 0  1.08 0.12 0  1.1 0.12 0  1.12 0.12 0  1.14 0.12 0  1.16 0.12 0  1.18 0.12 0  1.2 0.12 0  1.22 0.12 0  1.24 0.12 0  1.26 0.12 0  1.28 0.12 0  1.3 0.12 0  1.32 0.12 0  1.34 0.12 0  1.36 0.12 0  1.38 0.12 0  1.4 0.12 0  1.42 0.12 0  1.44 0.12 0  1.46 0.12 0  1.48 0.12 0  1.5 0.12 0  1.52 0.12 0  1.54 0.12 0  1.56 0.12 0  1.58 0.12 0  1.6 0.12 0  1.62 0.12 0  1.64 0.12 0  1.66 0.12 0  1.68 0.12 0  1.7 0.12 0  1.72 0.12 0  1.74 0.12 0  1.76 0.12 0  1.78 0.12 0  1.8 0.12 0  1.82 0.12 0  1.84 0.12 0  1.86 0.12 0  1.88 0.12 0  1.9 0.12 0  1.92 0.12 0  1.94 0.12 0  1.96 0.12 0  1.98 0.12 0  2 0.12 0  0 0.14 0  0.02 0.14 0  0.04 0.14 0  0.06 0.14 0  0.08 0.14 0  0.1 0.14 0  0.12 0.14 0  0.14 0.14 0  0.16 0.14 0  0.18 0.14 0  0.2 0.14 0  0.22 0.14 0  0.24 0.14 0  0.26 0.14 0  0.28 0.14 0  0.3 0.14 0  0.32 0.14 0  0.34 0.14 0  0.36 0.14 0  0.38 0.14 0  0.4 0.14 0  0.42 0.14 0  0.44 0.14 0  0.46 0.14 0  0.48 0.14 0  0.5 0.14 0  0.52 0.14 0  0.54 0.14 0  0.5600000000000001 0.14 0  0.58 0.14 0  0.6 0.14 0  0.62 0.14 0  0.64 0.14 0  0.66 0.14 0  0.68 0.14 0  0.7 0.14 0  0.72 0.14 0  0.74 0.14 0  0.76 0.14 0  0.78 0.14 0  0.8 0.14 0  0.82 0.14 0  0.84 0.14 0  0.86 0.14 0  0.88 0.14 0  0.9 0.14 0  0.92 0.14 0  0.9399999999999999 0.14 0  0.96 0.14 0  0.98 0.14 0  1 0.14 0  1.02 0.14 0  1.04 0.14 0  1.06 0.14 0  1.08 0.14 0  1.1 0.14 0  1.12 0.14 0  1.14 0.14 0  1.16 0.14 0  1.18 0.14 0  1.2 0.14 0  1.22 0.14 0  1.24 0.14 0  1.26 0.14 0  1.28 0.14 0  1.3 0.14 0  1.32 0.14 0  1.34 0.14 0  1.36 0.14 0  1.38 0.14 0  1.4 0.14 0  1.42 0.14 0  1.44 0.14 0  1.46 0.14 0  1.48 0.14 0  1
[...]
<PointData  Scalars="sols[i]"> 
<DataArray  type="Float64"  Name="sols[i]"  format="ascii">4.1065902856457174e-03  2.7389239208071492e-03  2.7389239208087035e-03  2.7389239208111251e-03  2.7389239208146093e-03  2.7389239208193699e-03  2.7389239208256626e-03  2.7389239208337928e-03  2.7389239208440879e-03  2.7389239208569041e-03  2.7389239208726384e-03  2.7389239208917156e-03  2.7389239209146478e-03  2.7389239209420621e-03  2.7389239209747421e-03  2.7389239210136151e-03  2.7389239210597765e-03  2.7389239211160193e-03  2.7389239211801507e-03  2.7389239212546597e-03  2.7389239213399534e-03  2.7389239214357748e-03  2.7389239215410894e-03  2.7389239216539778e-03  2.7389239216951654e-03  2.7389239218141639e-03  2.7389239219305604e-03  2.7389239220402977e-03  2.7389239221411962e-03  2.7389239222267055e-03  2.7389239222960441e-03  2.7389239223477801e-03  2.7389239223815196e-03  2.7389239223978516e-03  2.7389239223982072e-03  2.7389239223845918e-03  2.7389239223610472e-03  2.7389239223268363e-03  2.7389239222860304e-03  2.7389239222408283e-03  2.7389239221930883e-03  2.7389239221442319e-03  2.7389239220953140e-03  2.7389239220469985e-03  2.7389239219996172e-03  2.7389239219532502e-03  2.7389239219078047e-03  2.7389239218630341e-03  2.7389239218186768e-03  2.7389239217744509e-03  2.7389239217284608e-03  2.7389239216837687e-03  2.7389239216386065e-03  2.7389239215929147e-03  2.7389239215467051e-03  2.7389239215000615e-03  2.7389239214531446e-03  2.7389239214060963e-03  2.7389239213575392e-03  2.7389239213110039e-03  2.7389239212651131e-03  2.7389239212201395e-03  2.7389239211763521e-03  2.7389239212104967e-03  2.7389239211698300e-03  2.7389239211310576e-03  2.7389239210943652e-03  2.7389239210599066e-03  2.7389239210278225e-03  2.7389239209981487e-03  2.7389239209709626e-03  2.7389239209462896e-03  2.7389239209240973e-03  2.7389239209043336e-03  2.7389239208852807e-03  2.7389239208700949e-03  2.7389239208570073e-03  2.7389239208458695e-03  2.7389239208365094e-03  2.7389239208287504e-03  2.7389239208224113e-03  2.7389239208173285e-03  2.7389239208132779e-03  2.7389239208101186e-03  2.7389239208077077e-03  2.7389239208058910e-03  2.7389239208045458e-03  2.7389239208035639e-03  2.7389239208028540e-03  2.7389239208023388e-03  2.7389239208019589e-03  2.7389239208016674e-03  2.7389239208014328e-03  2.7389239208012520e-03  2.7389239208010642e-03  2.7389239208008989e-03  2.7389239208007693e-03  2.7389239208006669e-03  2.7389239208005941e-03  2.7389239208005559e-03  8.1843272650913585e-03  2.7389239208090370e-03  1.3670254352772730e-03  1.3670254352782158e-03  1.3670254352797365e-03  1.3670254352819537e-03  1.3670254352849999e-03  1.3670254352890184e-03  1.3670254352941670e-03  1.3670254353006042e-03  1.3670254353084881e-03  1.3670254353179878e-03  1.3670254353292928e-03  1.3670254353426367e-03  1.3670254353583408e-03  1.3670254353768396e-03  1.3670254353986922e-03  1.3670254354245836e-03  1.3670254354552825e-03  1.3670254354915406e-03  1.3670254355342135e-03  1.3670254355832119e-03  1.3670254356387055e-03  1.3670254357001171e-03  1.3670254357662820e-03  1.3670254358354513e-03  1.3670254359053932e-03  1.3670254359735620e-03  1.3670254360373091e-03  1.3670254360941400e-03  1.3670254361419255e-03  1.3670254361793348e-03  1.3670254362050391e-03  1.3670254362190910e-03  1.3670254362219869e-03  1.3670254362147857e-03  1.3670254361989413e-03  1.3670254361761553e-03  1.3670254361482074e-03  1.3670254361167950e-03  1.3670254360834365e-03  1.3670254360493986e-03  1.3670254360156468e-03  1.3670254359828655e-03  1.3670254359514742e-03  1.3670254359216532e-03  1.3670254358934069e-03  1.3670254358666102e-03  1.3670254358410438e-03  1.3670254358164563e-03  1.3670254357925945e-03  1.3670254357692128e-03  1.3670254357461052e-03  1.3670254357231112e-03  1.3670254357001207e-03  1.3670254356770754e-03  1.3670254356539617e-03  1.3670254356308149e-03  1.3670254356076819e-03  1.3670254355846493e-03  1.3670254355616120e-03  1.3670254355391343e-03  1.3670254355171146e-03  1.3670254354956766e-03  1.3670254354749419e-03  1.3670254354550247e-03  1.3670254354360275e-03  1.3670254354180400e-03  1.3670254354011381e-03  1.3670254353853886e-03  1.3670254353708173e-03  1.3670254353574504e-03  1.3670254353450833e-03  1.3670254353341535e-03  1.3670254353244104e-03  1.3670254353158127e-03  1.3670254353083081e-03  1.3670254353018315e-03  1.3670254352963094e-03  1.3670254352916586e-03  1.3670254352877930e-03  1.3670254352846215e-03  1.3670254352820628e-03  1.3670254352800143e-03  1.3670254352783930e-03  1.3670254352771379e-03  1.3670254352761745e-03  1.3670254352754422e-03  1.3670254352748901e-03  1.3670254352744758e-03  1.3670254352741631e-03  1.3670254352739256e-03  1.3670254352737407e-03  1.3670254352735939e-03  1.3670254352734800e-03  1.3670254352733785e-03  1.3670254352732855e-03  1.3670254352732155e-03  1.3670254352731613e-03  1.3670254352731227e-03  1.3670254352731006e-03  2.7389239208005763e-03  2.7389239208169300e-03  1.3670254352809677e-03  1.3670254352827827e-03  1.3670254352857289e-03  1.3670254352900115e-03  1.3670254352958489e-03  1.3670254353034472e-03  1.3670254353129836e-03  1.3670254353245889e-03  1.3670254353383387e-03  1.3670254353542871e-03  1.3670254353724993e-03  1.3670254353931317e-03  1.3670254354165264e-03  1.3670254354432973e-03  1.3670254354743786e-03  1.3670254355110383e-03  1.3670254355547936e-03  1.3670254356072217e-03  1.3670254356697191e-03  1.3670254357431946e-03  1.3670254358279694e-03  1.3670254359226311e-03  1.3670254360252563e-03  1.3670254361325097e-03  1.3670254362400823e-03  1.3670254363430513e-03  1.3670254364363422e-03  1.3670254365152528e-03  1.3670254365759154e-03  1.3670254366156816e-03  1.3670254366333380e-03  1.3670254366291226e-03  1.3670254366046151e-03  1.3670254365624789e-03  1.3670254365063395e-03  1.3670254364395258e-03  1.3670254363660880e-03  1.3670254362895796e-03  1.3670254362130845e-03  1.3670254361390875e-03  1.3670254360694072e-03  1.3670254360052330e-03  1.3670254359471866e-03  1.3670254358953975e-03  1.3670254358496281e-03  1.3670254358093814e-03  1.3670254357739870e-03  1.3670254357427054e-03  1.3670254357147972e-03  1.3670254356895545e-03  1.3670254356663507e-03  1.3670254356446534e-03  1.3670254356240366e-03  1.3670254356041728e-03  1.3670254355846031e-03  1.3670254355656383e-03  1.3670254355469544e-03  1.3670254355285215e-03  1.3670254355103697e-03  1.3670254354925331e-03  1.3670254354750753e-03  1.3670254354580698e-03  1.3670254354415977e-03  1.3670254354257380e-03  1.3670254354105670e-03  1.3670254353961532e-03  1.3670254353825571e-03  1.3670254353698352e-03  1.3670254353580112e-03  1.3670254353468827e-03  1.3670254353369321e-03  1.3670254353279263e-03  1.3670254353198524e-03  1.3670254353126863e-03  1.3670254353063925e-03  1.3670254353009229e-03  1.3670254352962212e-03  1.3670254352922222e-03  1.3670254352888542e-03  1.3670254352860420e-03  1.3670254352837171e-03  1.3670254352817920e-03  1.3670254352801984e-03  1.3670254352788911e-03  1.3670254352778103e-03  1.3670254352769159e-03  1.3670254352761719e-03  1.3670254352755532e-03  1.3670254352750393e-03  1.3670254352746154e-03  1.3670254352742667e-03  1.3670254352739827e-03  1.3670254352737624e-03  1.3670254352735813e-03  1.3670254352734330e-03  1.3670254352733263e-03  1.3670254352732493e-03  1.3670254352731986e-03  1.3670254352731719e-03  2.7389239208007090e-03  2.7389239208348401e-03  1.3670254352895342e-03  1.3670254352934526e-03  1.3670254352998006e-03  1.3670254353089983e-03  1.3670254353214751e-03  1.3670254353376093e-03  1.3670254353576727e-03  1.3670254353817777e-03  1.3670254354098685e-03  1.3670254354417768e-03  1.3670254354773315e-03  1.3670254355165491e-03  1.3670254355598850e-03  1.3670254356084625e-03  1.3670254356642354e-03  1.3670254357300200e-03  1.3670254358093233e-03  1.3670254359059166e-03  1.3670254360232440e-03  1.3670254361636762e-03  1.3670254363277398e-03  1.3670254365135107e-03  1.3670254367162714e-03  1.3670254369285428e-03  1.3670254371405729e-03  1.3670254373412064e-03  1.3670254375190082e-03  1.3670254376634962e-03  1.3670254377662443e-03  1.3670254378217446e-03  1.3670254378278656e-03  1.3670254377860930e-03  1.3670254377002875e-03  1.3670254375773984e-03  1.3670254374257159e-03  1.3670254372542521e-03  1.3670254370719331e-03  1.3670254368869210e-03  1.3670254367061617e-03  1.3670254365351193e-03  1.3670254363776784e-03  1.3670254362362331e-03  1.3670254361118617e-03  1.3670254360045415e-03  1.3670254359136544e-03  1.3670254358373337e-03  1.3670254357738137e-03  1.3670254357216456e-03  1.3670254356787104e-03  1.3670254356432201e-03  1.3670254356135784e-03  1.3670254355884137e-03  1.3670254355665915e-03  1.3670254355472081e-03  1.3670254355295684e-03  1.3670254355131679e-03  1.3670254354976299e-03  1.3670254354827137e-03  1.3670254354682884e-03  1.3670254354542677e-03  1.3670254354406243e-03  1.3670254354273634e-03  1.3670254354145126e-03  1.3670254354021117e-03  1.3670254353902085e-03  1.3670254353788493e-03  1.3670254353680804e-03  1.3670254353579502e-03  1.3670254353482540e-03  1.3670254353394730e-03  1.3670254353314174e-03  1.3670254353240908e-03  1.3670254353174958e-03  1.3670254353116229e-03  1.3670254353064506e-03  1.3670254353019453e-03  1.3670254352980595e-03  1.3670254352947336e-03  1.3670254352919000e-03  1.3670254352894839e-03  1.3670254352874168e-03  1.3670254352856140e-03  1.3670254352840122e-03  1.3670254352825782e-03  1.3670254352812694e-03  1.3670254352800657e-03  1.3670254352789592e-03  1.3670254352779498e-03  1.3670254352770419e-03  1.3670254352762413e-03  1.3670254352755515e-03  1.3670254352749719e-03  1.3670254352745061e-03  1.3670254352741297e-03  1.3670254352738324e-03  1.3670254352736173e-03  1.3670254352734666e-03  1.3670254352733718e-03  1.3670254352733278e-03  2.7389239208010056e-03  2.7389239208735852e-03  1.3670254353081905e-03  1.3670254353168475e-03  1.3670254353308749e-03  1.3670254353512058e-03  1.3670254353787853e-03  1.3670254354144272e-03  1.3670254354586648e-03  1.3670254355116203e-03  1.3670254355729566e-03  1.3670254356419884e-03  1.3670254357179604e-03  1.3670254358005263e-03  1.3670254358903698e-03  1.3670254359898237e-03  1.3670254361033173e-03  1.3670254362374932e-03  1.3670254364008068e-03  1.3670254366025386e-03  1.3670254368513129e-03  1.3670254371532602e-03  1.3670254375101202e-03  1.3670254379177077e-03  1.3670254383650554e-03  1.3670254388345085e-03  1.3670254393027003e-03  1.3670254397436128e-03  1.3670254401300002e-03  1.3670254404373023e-03  1.3670254406461010e-03  1.3670254407441220e-03  1.3670254407272498e-03  1.3670254405994823e-03  1.3670254403722142e-03  1.3670254400616759e-03  1.3670254396882543e-03  1.3670254392735000e-03  1.3670254388384495e-03  1.3670254384020842e-03  1.3670254379805299e-03  1.3670254375855926e-03  1.3670254372259963e-03  1.3670254369067159e-03  1.3670254366296669e-03  1.3670254363942792e-03  1.3670254361981371e-03  1.3670254360375865e-03  1.3670254359082531e-03  1.3670254358055022e-03  1.3670254357247801e-03  1.3670254356618352e-03  1.3670254356128843e-03  1.3670254355746890e-03  1.3670254355445651e-03  1.3670254355203650e-03  1.3670254355004189e-03  1.3670254354834781e-03  1.3670254354686071e-03  1.3670254354551576e-03  1.3670254354427025e-03  1.3670254354309454e-03  1.3670254354197105e-03  1.3670254354088986e-03  1.3670254353984653e-03  1.3670254353884005e-03  1.3670254353787170e-03  1.3670254353694417e-03  1.3670254353606078e-03  1.3670254353520350e-03  1.3670254353442010e-03  1.3670254353369169e-03  1.3670254353302330e-03  1.3670254353241700e-03  1.3670254353187472e-03  1.3670254353139706e-03  1.3670254353098301e-03  1.3670254353062941e-03  1.3670254353033084e-03  1.3670254353007969e-03  1.3670254352986643e-03  1.3670254352968049e-03  1.3670254352951196e-03  1.3670254352934966e-03  1.3670254352918603e-03  1.3670254352901783e-03  1.3670254352884281e-03  1.3670254352866238e-03  1.3670254352848019e-03  1.3670254352830132e-03  1.3670254352813114e-03  1.3670254352797459e-03  1.3670254352783524e-03  1.3670254352771537e-03  1.3670254352761641e-03  1.3670254352753620e-03  1.3670254352747316e-03  1.3670254352742667e-03  1.3670254352739404e-03  1.3670254352737363e-03  1.3670254352736424e-03  2.7389239208016045e-03  2.7389239209562721e-03  1.3670254353481783e-03  1.3670254353673687e-03  1.3670254353985792e-03  1.3670254354439726e-03  1.3670254355057552e-03  1.3670254355858337e-03  1.3670254356854222e-03  1.3670254358046920e-03  1.3670254359426093e-03  1.3670254360971486e-03  1.3670254362659589e-03  1.3670254364475565e-03  1.3670254366428894e-03  1.3670254368569517e-03  1.3670254370999977e-03  1.3670254373879106e-03  1.3670254377412907e-03  1.3670254381830860e-03  1.3670254387346914e-03  1.3670254394122969e-03  1.3670254402208110e-03  1.3670254411509005e-03  1.3670254421763886e-03  1.3670254432554280e-03  1.3670254443021311e-03  1.3670254453128734e-03  1.3670254462227669e-03  1.3670254469139531e-03  1.3670254473707843e-03  1.3670254475654331e-03  1.3670254474899071e-03  1.3670254471556951e-03  1.3670254465911978e-03  1.3670254458377654e-03  1.3670254449737558e-03  1.3670254439908189e-03  1.3670254429684987e-03  1.3670254419511367e-03  1.3670254409746652e-03  1.3670254400668387e-03  1.3670254392164395e-03  1.3670254384933152e-03  1.3670254378711497e-03  1.3670254373470978e-03  1.3670254369149016e-03  1.3670254365653999e-03  1.3670254362879782e-03  1.3670254360715853e-03  1.3670254359054964e-03  1.3670254357798152e-03  1.3670254356858104e-03  1.3670254356160550e-03  1.3670254355644411e-03  1.3670254355261004e-03  1.3670254354972633e-03  1.3670254354750967e-03  1.3670254354575084e-03  1.3670254354430126e-03  1.3670254354305963e-03  1.3670254354195583e-03  1.3670254354094448e-03  1.3670254353999737e-03  1.3670254353909772e-03  1.3670254353823678e-03  1.3670254353741103e-03  1.3670254353662045e-03  1.3670254353586758e-03  1.3670254353513440e-03  1.3670254353447026e-03  1.3670254353385838e-03  1.3670254353330665e-03  1.3670254353282025e-03  1.3670254353240409e-03  1.3670254353206090e-03  1.3670254353179041e-03  1.3670254353158799e-03  1.3670254353144447e-03  1.3670254353134552e-03  1.3670254353127303e-03  1.3670254353120614e-03  1.3670254353112484e-03  1.3670254353100961e-03  1.3670254353084759e-03  1.3670254353063433e-03  1.3670254353037085e-03  1.3670254353006571e-03  1.3670254352973253e-03  1.3670254352938769e-03  1.3670254352904764e-03  1.3670254352872696e-03  1.3670254352843669e-03  1.3670254352818401e-03  1.3670254352797257e-03  1.3670254352780074e-03  1.3670254352766574e-03  1.3670254352756515e-03  1.3670254352749400e-03  1.3670254352744890e-03  1.3670254352742730e-03  2.7389239208027950e-03  2.7389239211316613e-03  1.3670254354333446e-03  1.3670254354758908e-03  1.3670254355455113e-03  1.3670254356473409e-03  1.3670254357866869e-03  1.3670254359681863e-03  1.3670254361947973e-03  1.3670254364668462e-03  1.3670254367815118e-03  1.3670254371332018e-03  1.3670254375151457e-03  1.3670254379223369e-03  1.3670254383554993e-03  1.3670254388250390e-03  1.3670254393552111e-03  1.3670254399838720e-03  1.3670254407613257e-03  1.3670254417441307e-03  1.3670254429869321e-03  1.3670254444997320e-03  1.3670254463568274e-03  1.3670254485077407e-03  1.3670254508902418e-03  1.3670254534026488e-03  1.3670254558804454e-03  1.3670254582600276e-03  1.3670254602962391e-03  1.3670254618796947e-03  1.3670254629042354e-03  1.3670254633362197e-03  1.3670254631014251e-03  1.3670254622610558e-03  1.3670254609171228e-03  1.3670254591108945e-03  1.3670254569900587e-03  1.3670254546771345e-03  1.3670254522885840e-03  1.3670254499264835e-03  1.3670254476743386e-03  1.3670254455934938e-03  1.3670254437239899e-03  1.3670254420872427e-03  1.3670254406875351e-03  1.3670254395173986e-03  1.3670254385594299e-03  1.3670254377612008e-03  1.3670254371574142e-03  1.3670254366914842e-03  1.3670254363385996e-03  1.3670254360759234e-03  1.3670254358834949e-03  1.3670254357444911e-03  1.3670254356451970e-03  1.3670254355747677e-03  1.3670254355248720e-03  1.3670254354892922e-03  1.3670254354634774e-03  1.3670254354442074e-03  1.3670254354292658e-03  1.3670254354171353e-03  1.3670254354068206e-03  1.3670254353976841e-03  1.3670254353893318e-03  1.3670254353815370e-03  1.3670254353741831e-03  1.3670254353672312e-03  1.3670254353606969e-03  1.3670254353544172e-03  1.3670254353489201e-03  1.3670254353440906e-03  1.3670254353400713e-03  1.3670254353369815e-03  1.3670254353349326e-03  1.3670254353339948e-03  1.3670254353341704e-03  1.3670254353353689e-03  1.3670254353373883e-03  1.3670254353399124e-03  1.3670254353425259e-03  1.3670254353447577e-03  1.3670254353461437e-03  1.3670254353462677e-03  1.3670254353448611e-03  1.3670254353418448e-03  1.3670254353373031e-03  1.3670254353314933e-03  1.3670254353247923e-03  1.3670254353176322e-03  1.3670254353104400e-03  1.3670254353035851e-03  1.3670254352973461e-03  1.3670254352918993e-03  1.3670254352873316e-03  1.3670254352836258e-03  1.3670254352807240e-03  1.3670254352785541e-03  1.3670254352770145e-03  1.3670254352760266e-03  1.3670254352755350e-03  2.7389239208051603e-03  2.7389239215019089e-03  1.3670254356139471e-03  1.3670254357082236e-03  1.3670254358636796e-03  1.3670254360926368e-03  1.3670254364080384e-03  1.3670254368213757e-03  1.3670254373400921e-03  1.3670254379650037e-03  1.3670254386884907e-03  1.3670254394959861e-03  1.3670254403683490e-03  1.3670254412900505e-03  1.3670254422590066e-03  1.3670254432971787e-03  1.3670254444601358e-03  1.3670254458387680e-03  1.3670254475264384e-03  1.3670254497232680e-03  1.3670254525054652e-03  1.3670254560352309e-03  1.3670254602926777e-03  1.3670254652913660e-03  1.3670254708233322e-03  1.3670254767025802e-03  1.3670254825731594e-03  1.3670254880633959e-03  1.3670254928292481e-03  1.3670254964794823e-03  1.3670254988236105e-03  1.3670254996886371e-03  1.3670254990496506e-03  1.3670254969630881e-03  1.3670254936698127e-03  1.3670254893877521e-03  1.3670254843716047e-03  1.3670254789723778e-03  1.3670254734038402e-03  1.3670254679324508e-03  1.3670254627171591e-03  1.3670254579550127e-03  1.3670254537023780e-03  1.3670254500011410e-03  1.3670254468260848e-03  1.3670254442127282e-03  1.3670254420881955e-03  1.3670254403964730e-03  1.3670254390769300e-03  1.3670254380676206e-03  1.3670254372805772e-03  1.3670254367235575e-03  1.3670254363206936e-03  1.3670254360343137e-03  1.3670254358338131e-03  1.3670254356952303e-03  1.3670254356003368e-03  1.3670254355356440e-03  1.3670254354914038e-03  1.3670254354607645e-03  1.3670254354390301e-03  1.3670254354230269e-03  1.3670254354106741e-03  1.3670254354006370e-03  1.3670254353920872e-03  1.3670254353845329e-03  1.3670254353777141e-03  1.3670254353715264e-03  1.3670254353659833e-03  1.3670254353611946e-03  1.3670254353570952e-03  1.3670254353543752e-03  1.3670254353530978e-03  1.3670254353535442e-03  1.3670254353559705e-03  1.3670254353605467e-03  1.3670254353672887e-03  1.3670254353759935e-03  1.3670254353861913e-03  1.3670254353971313e-03  1.3670254354078235e-03  1.3670254354171349e-03  1.3670254354239473e-03  1.3670254354272975e-03  1.3670254354265707e-03  1.3670254354216059e-03  1.3670254354126833e-03  1.3670254354004908e-03  1.3670254353859981e-03  1.3670254353702919e-03  1.3670254353544231e-03  1.3670254353392833e-03  1.3670254353255326e-03  1.3670254353135751e-03  1.3670254353035866e-03  1.3670254352955347e-03  1.3670254352892721e-03  1.3670254352846031e-03  1.3670254352812945e-03  1.3670254352791578e-03  1.3670254352780643e-03  2.7389239208098631e-03  2.7389239222796570e-03  1.3670254359952766e-03  1.3670254362039742e-03  1.3670254365510312e-03  1.3670254370661630e-03  1.3670254377811473e-03  1.3670254387245198e-03  1.3670254399158034e-03  1.3670254413572216e-03  1.3670254430298648e-03  1.3670254448937911e-03  1.3670254468975919e-03  1.3670254489947930e-03  1.3670254511710129e-03  1.3670254534713150e-03  1.3670254559924125e-03  1.3670254590135949e-03  1.3670254627753159e-03  1.3670254676556518e-03  1.3670254739944813e-03  1.3670254820533484e-03  1.36702549194