<?xml version="1.0"?>
<VTKFile type="UnstructuredGrid"  version="0.1"  >
<UnstructuredGrid>
<Piece  NumberOfPoints="5151" NumberOfCells="10000">
<Points>
<DataArray  type="Float64"  NumberOfComponents="3"  format="ascii">0 0 0  0.02 0 0  0.04 0 0  0.06 0 0  0.08 0 0  0.1 0 0  0.12 0 0  0.14 0 0  0.16 0 0  0.18 0 0  0.2 0 0  0.22 0 0  0.24 0 0  0.26 0 0  0.28 0 0  0.3 0 0  0.32 0 0  0.34 0 0  0.36 0 0  0.38 0 0  0.4 0 0  0.42 0 0  0.44 0 0  0.46 0 0  0.48 0 0  0.5 0 0  0.52 0 0  0.54 0 0  0.5600000000000001 0 0  0.58 0 0  0.6 0 0  0.62 0 0  0.64 0 0  0.66 0 0  0.68 0 0  0.7 0 0  0.72 0 0  0.74 0 0  0.76 0 0  0.78 0 0  0.8 0 0  0.82 0 0  0.84 0 0  0.86 0 0  0.88 0 0  0.9 0 0  0.92 0 0  0.9399999999999999 0 0  0.96 0 0  0.98 0 0  1 0 0  1.02 0 0  1.04 0 0  1.06 0 0  1.08 0 0  1.1 0 0  1.12 0 0  1.14 0 0  1.16 0 0  1.18 0 0  1.2 0 0  1.22 0 0  1.24 0 0  1.26 0 0  1.28 0 0  1.3 0 0  1.32 0 0  1.34 0 0  1.36 0 0  1.38 0 0  1.4 0 0  1.42 0 0  1.44 0 0  1.46 0 0  1.48 0 0  1.5 0 0  1.52 0 0  1.54 0 0  1.56 0 0  1.58 0 0  1.6 0 0  1.62 0 0  1.64 0 0  1.66 0 0  1.68 0 0  1.7 0 0  1.72 0 0  1.74 0 0  1.76 0 0  1.78 0 0  1.8 0 0  1.82 0 0  1.84 0 0  1.86 0 0  1.88 0 0  1.9 0 0  1.92 0 0  1.94 0 0  1.96 0 0  1.98 0 0  2 0 0  0 0.02 0  0.02 0.02 0  0.04 0.02 0  0.06 0.02 0  0.08 0.02 0  0.1 0.02 0  0.12 0.02 0  0.14 0.02 0  0.16 0.02 0  0.18 0.02 0  0.2 0.02 0  0.22 0.02 0  0.24 0.02 0  0.26 0.02 0  0.28 0.02 0  0.3 0.02 0  0.32 0.02 0  0.34 0.02 0  0.36 0.02 0  0.38 0.02 0  0.4 0.02 0  0.42 0.02 0  0.44 0.02 0  0.46 0.02 0  0.48 0.02 0  0.5 0.02 0  0.52 0.02 0  0.54 0.02 0  0.5600000000000001 0.02 0  0.58 0.02 0  0.6 0.02 0  0.62 0.02 0  0.64 0.02 0  0.66 0.02 0  0.68 0.02 0  0.7 0.02 0  0.72 0.02 0  0.74 0.02 0  0.76 0.02 0  0.78 0.02 0  0.8 0.02 0  0.82 0.02 0  0.84 0.02 0  0.86 0.02 0  0.88 0.02 0  0.9 0.02 0  0.92 0.02 0  0.9399999999999999 0.02 0  0.96 0.02 0  0.98 0.02 0  1 0.02 0  1.02 0.02 0  1.04 0.02 0  1.06 0.02 0  1.08 0.02 0  1.1 0.02 0  1.12 0.02 0  1.14 0.02 0  1.16 0.02 0  1.18 0.02 0  1.2 0.02 0  1.22 0.02 0  1.24 0.02 0  1.26 0.02 0  1.28 0.02 0  1.3 0.02 0  1.32 0.02 0  1.34 0.02 0  1.36 0.02 0  1.38 0.02 0  1.4 0.02 0  1.42 0.02 0  1.44 0.02 0  1.46 0.02 0  1.48 0.02 0  1.5 0.02 0  1.52 0.02 0  1.54 0.02 0  1.56 0.02 0  1.58 0.02 0  1.6 0.02 0  1.62 0.02 0  1.64 0.02 0  1.66 0.02 0  1.68 0.02 0  1.7 0.02 0  1.72 0.02 0  1.74 0.02 0  1.76 0.02 0  1.78 0.02 0  1.8 0.02 0  1.82 0.02 0  1.84 0.02 0  1.86 0.02 0  1.88 0.02 0  1.9 0.02 0  1.92 0.02 0  1.94 0.02 0  1.96 0.02 0  1.98 0.02 0  2 0.02 0  0 0.04 0  0.02 0.04 0  0.04 0.04 0  0.06 0.04 0  0.08 0.04 0  0.1 0.04 0  0.12 0.04 0  0.14 0.04 0  0.16 0.04 0  0.18 0.04 0  0.2 0.04 0  0.22 0.04 0  0.24 0.04 0  0.26 0.04 0  0.28 0.04 0  0.3 0.04 0  0.32 0.04 0  0.34 0.04 0  0.36 0.04 0  0.38 0.04 0  0.4 0.04 0  0.42 0.04 0  0.44 0.04 0  0.46 0.04 0  0.48 0.04 0  0.5 0.04 0  0.52 0.04 0  0.54 0.04 0  0.5600000000000001 0.04 0  0.58 0.04 0  0.6 0.04 0  0.62 0.04 0  0.64 0.04 0  0.66 0.04 0  0.68 0.04 0  0.7 0.04 0  0.72 0.04 0  0.74 0.04 0  0.76 0.04 0  0.78 0.04 0  0.8 0.04 0  0.82 0.04 0  0.84 0.04 0  0.86 0.04 0  0.88 0.04 0  0.9 0.04 0  0.92 0.04 0  0.9399999999999999 0.04 0  0.96 0.04 0  0.98 0.04 0  1 0.04 0  1.02 0.04 0  1.04 0.04 0  1.06 0.04 0  1.08 0.04 0  1.1 0.04 0  1.12 0.04 0  1.14 0.04 0  1.16 0.04 0  1.18 0.04 0  1.2 0.04 0  1.22 0.04 0  1.24 0.04 0  1.26 0.04 0  1.28 0.04 0  1.3 0.04 0  1.32 0.04 0  1.34 0.04 0  1.36 0.04 0  1.38 0.04 0  1.4 0.04 0  1.42 0.04 0  1.44 0.04 0  1.46 0.04 0  1.48 0.04 0  1.5 0.04 0  1.52 0.04 0  1.54 0.04 0  1.56 0.04 0  1.58 0.04 0  1.6 0.04 0  1.62 0.04 0  1.64 0.04 0  1.66 0.04 0  1.68 0.04 0  1.7 0.04 0  1.72 0.04 0  1.74 0.04 0  1.76 0.04 0  1.78 0.04 0  1.8 0.04 0  1.82 0.04 0  1.84 0.04 0  1.86 0.04 0  1.88 0.04 0  1.9 0.04 0  1.92 0.04 0  1.94 0.04 0  1.96 0.04 0  1.98 0.04 0  2 0.04 0  0 0.06 0  0.02 0.06 0  0.04 0.06 0  0.06 0.06 0  0.08 0.06 0  0.1 0.06 0  0.12 0.06 0  0.14 0.06 0  0.16 0.06 0  0.18 0.06 0  0.2 0.06 0  0.22 0.06 0  0.24 0.06 0  0.26 0.06 0  0.28 0.06 0  0.3 0.06 0  0.32 0.06 0  0.34 0.06 0  0.36 0.06 0  0.38 0.06 0  0.4 0.06 0  0.42 0.06 0  0.44 0.06 0  0.46 0.06 0  0.48 0.06 0  0.5 0.06 0  0.52 0.06 0  0.54 0.06 0  0.5600000000000001 0.06 0  0.58 0.06 0  0.6 0.06 0  0.62 0.06 0  0.64 0.06 0  0.66 0.06 0  0.68 0.06 0  0.7 0.06 0  0.72 0.06 0  0.74 0.06 0  0.76 0.06 0  0.78 0.06 0  0.8 0.06 0  0.82 0.06 0  0.84 0.06 0  0.86 0.06 0  0.88 0.06 0  0.9 0.06 0  0.92 0.06 0  0.9399999999999999 0.06 0  0.96 0.06 0  0.98 0.06 0  1 0.06 0  1.02 0.06 0  1.04 0.06 0  1.06 0.06 0  1.08 0.06 0  1.1 0.06 0  1.12 0.06 0  1.14 0.06 0  1.16 0.06 0  1.18 0.06 0  1.2 0.06 0  1.22 0.06 0  1.24 0.06 0  1.26 0.06 0  1.28 0.06 0  1.3 0.06 0  1.32 0.06 0  1.34 0.06 0  1.36 0.06 0  1.38 0.06 0  1.4 0.06 0  1.42 0.06 0  1.44 0.06 0  1.46 0.06 0  1.48 0.06 0  1.5 0.06 0  1.52 0.06 0  1.54 0.06 0  1.56 0.06 0  1.58 0.06 0  1.6 0.06 0  1.62 0.06 0  1.64 0.06 0  1.66 0.06 0  1.68 0.06 0  1.7 0.06 0  1.72 0.06 0  1.74 0.06 0  1.76 0.06 0  1.78 0.06 0  1.8 0.06 0  1.82 0.06 0  1.84 0.06 0  1.86 0.06 0  1.88 0.06 0  1.9 0.06 0  1.92 0.06 0  1.94 0.06 0  1.96 0.06 0  1.98 0.06 0  2 0.06 0  0 0.08 0  0.02 0.08 0  0.04 0.08 0  0.06 0.08 0  0.08 0.08 0  0.1 0.08 0  0.12 0.08 0  0.14 0.08 0  0.16 0.08 0  0.18 0.08 0  0.2 0.08 0  0.22 0.08 0  0.24 0.08 0  0.26 0.08 0  0.28 0.08 0  0.3 0.08 0  0.32 0.08 0  0.34 0.08 0  0.36 0.08 0  0.38 0.08 0  0.4 0.08 0  0.42 0.08 0  0.44 0.08 0  0.46 0.08 0  0.48 0.08 0  0.5 0.08 0  0.52 0.08 0  0.54 0.08 0  0.5600000000000001 0.08 0  0.58 0.08 0  0.6 0.08 0  0.62 0.08 0  0.64 0.08 0  0.66 0.08 0  0.68 0.08 0  0.7 0.08 0  0.72 0.08 0  0.74 0.08 0  0.76 0.08 0  0.78 0.08 0  0.8 0.08 0  0.82 0.08 0  0.84 0.08 0  0.86 0.08 0  0.88 0.08 0  0.9 0.08 0  0.92 0.08 0  0.9399999999999999 0.08 0  0.96 0.08 0  0.98 0.08 0  1 0.08 0  1.02 0.08 0  1.04 0.08 0  1.06 0.08 0  1.08 0.08 0  1.1 0.08 0  1.12 0.08 0  1.14 0.08 0  1.16 0.08 0  1.18 0.08 0  1.2 0.08 0  1.22 0.08 0  1.24 0.08 0  1.26 0.08 0  1.28 0.08 0  1.3 0.08 0  1.32 0.08 0  1.34 0.08 0  1.36 0.08 0  1.38 0.08 0  1.4 0.08 0  1.42 0.08 0  1.44 0.08 0  1.46 0.08 0  1.48 0.08 0  1.5 0.08 0  1.52 0.08 0  1.54 0.08 0  1.56 0.08 0  1.58 0.08 0  1.6 0.08 0  1.62 0.08 0  1.64 0.08 0  1.66 0.08 0  1.68 0.08 0  1.7 0.08 0  1.72 0.08 0  1.74 0.08 0  1.76 0.08 0  1.78 0.08 0  1.8 0.08 0  1.82 0.08 0  1.84 0.08 0  1.86 0.08 0  1.88 0.08 0  1.9 0.08 0  1.92 0.08 0  1.94 0.08 0  1.96 0.08 0  1.98 0.08 0  2 0.08 0  0 0.1 0  0.02 0.1 0  0.04 0.1 0  0.06 0.1 0  0.08 0.1 0  0.1 0.1 0  0.12 0.1 0  0.14 0.1 0  0.16 0.1 0  0.18 0.1 0  0.2 0.1 0  0.22 0.1 0  0.24 0.1 0  0.26 0.1 0  0.28 0.1 0  0.3 0.1 0  0.32 0.1 0  0.34 0.1 0  0.36 0.1 0  0.38 0.1 0  0.4 0.1 0  0.42 0.1 0  0.44 0.1 0  0.46 0.1 0  0.48 0.1 0  0.5 0.1 0  0.52 0.1 0  0.54 0.1 0  0.5600000000000001 0.1 0  0.58 0.1 0  0.6 0.1 0  0.62 0.1 0  0.64 0.1 0  0.66 0.1 0  0.68 0.1 0  0.7 0.1 0  0.72 0.1 0  0.74 0.1 0  0.76 0.1 0  0.78 0.1 0  0.8 0.1 0  0.82 0.1 0  0.84 0.1 0  0.86 0.1 0  0.88 0.1 0  0.9 0.1 0  0.92 0.1 0  0.9399999999999999 0.1 0  0.96 0.1 0  0.98 0.1 0  1 0.1 0  1.02 0.1 0  1.04 0.1 0  1.06 0.1 0  1.08 0.1 0  1.1 0.1 0  1.12 0.1 0  1.14 0.1 0  1.16 0.1 0  1.18 0.1 0  1.2 0.1 0  1.22 0.1 0  1.24 0.1 0  1.26 0.1 0  1.28 0.1 0  1.3 0.1 0  1.32 0.1 0  1.34 0.1 0  1.36 0.1 0  1.38 0.1 0  1.4 0.1 0  1.42 0.1 0  1.44 0.1 0  1.46 0.1 0  1.48 0.1 0  1.5 0.1 0  1.52 0.1 0  1.54 0.1 0  1.56 0.1 0  1.58 0.1 0  1.6 0.1 0  1.62 0.1 0  1.64 0.1 0  1.66 0.1 0  1.68 0.1 0  1.7 0.1 0  1.72 0.1 0  1.74 0.1 0  1.76 0.1 0  1.78 0.1 0  1.8 0.1 0  1.82 0.1 0  1.84 0.1 0  1.86 0.1 0  1.88 0.1 0  1.9 0.1 0  1.92 0.1 0  1.94 0.1 0  1.96 0.1 0  1.98 0.1 0  2 0.1 0  0 0.12 0  0.02 0.12 0  0.04 0.12 0  0.06 0.12 0  0.08 0.12 0  0.1 0.12 0  0.12 0.12 0  0.14 0.12 0  0.16 0.12 0  0.18 0.12 0  0.2 0.12 0  0.22 0.12 0  0.24 0.12 0  0.26 0.12 0  0.28 0.12 0  0.3 0.12 0  0.32 0.12 0  0.34 0.12 0  0.36 0.12 0  0.38 0.12 0  0.4 0.12 0  0.42 0.12 0  0.44 0.12 0  0.46 0.12 0  0.48 0.12 0  0.5 0.12 0  0.52 0.12 0  0.54 0.12 0  0.5600000000000001 0.12 0  0.58 0.12 0  0.6 0.12 0  0.62 0.12 0  0.64 0.12 0  0.66 0.12 0  0.68 0.12 0  0.7 0.12 0  0.72 0.12 0  0.74 0.12 0  0.76 0.12 0  0.78 0.12 0  0.8 0.12 0  0.82 0.12 0  0.84 0.12 0  0.86 0.12 0  0.88 0.12 0  0.9 0.12 0  0.92 0.12 0  0.9399999999999999 0.12 0  0.96 0.12 0  0.98 0.12 0  1 0.12 0  1.02 0.12 0  1.04 0.12 0  1.06 0.12 0  1.08 0.12 0  1.1 0.12 0  1.12 0.12 0  1.14 0.12 0  1.16 0.12 0  1.18 0.12 0  1.2 0.12 0  1.22 0.12 0  1.24 0.12 0  1.26 0.12 0  1.28 0.12 0  1.3 0.12 0  1.32 0.12 0  1.34 0.12 0  1.36 0.12 0  1.38 0.12 0  1.4 0.12 0  1.42 0.12 0  1.44 0.12 0  1.46 0.12 0  1.48 0.12 0  1.5 0.12 0  1.52 0.12 0  1.54 0.12 0  1.56 0.12 0  1.58 0.12 0  1.6 0.12 0  1.62 0.12 0  1.64 0.12 0  1.66 0.12 0  1.68 0.12 0  1.7 0.12 0  1.72 0.12 0  1.74 0.12 0  1.76 0.12 0  1.78 0.12 0  1.8 0.12 0  1.82 0.12 0  1.84 0.12 0  1.86 0.12 0  1.88 0.12 0  1.9 0.12 0  1.92 0.12 0  1.94 0.12 0  1.96 0.12 0  1.98 0.12 0  2 0.12 0  0 0.14 0  0.02 0.14 0  0.04 0.14 0  0.06 0.14 0  0.08 0.14 0  0.1 0.14 0  0.12 0.14 0  0.14 0.14 0  0.16 0.14 0  0.18 0.14 0  0.2 0.14 0  0.22 0.14 0  0.24 0.14 0  0.26 0.14 0  0.28 0.14 0  0.3 0.14 0  0.32 0.14 0  0.34 0.14 0  0.36 0.14 0  0.38 0.14 0  0.4 0.14 0  0.42 0.14 0  0.44 0.14 0  0.46 0.14 0  0.48 0.14 0  0.5 0.14 0  0.52 0.14 0  0.54 0.14 0  0.5600000000000001 0.14 0  0.58 0.14 0  0.6 0.14 0  0.62 0.14 0  0.64 0.14 0  0.66 0.14 0  0.68 0.14 0  0.7 0.14 0  0.72 0.14 0  0.74 0.14 0  0.76 0.14 0  0.78 0.14 0  0.8 0.14 0  0.82 0.14 0  0.84 0.14 0  0.86 0.14 0  0.88 0.14 0  0.9 0.14 0  0.92 0.14 0  0.9399999999999999 0.14 0  0.96 0.14 0  0.98 0.14 0  1 0.14 0  1.02 0.14 0  1.04 0.14 0  1.06 0.14 0  1.08 0.14 0  1.1 0.14 0  1.12 0.14 0  1.14 0.14 0  1.16 0.14 0  1.18 0.14 0  1.2 0.14 0  1.22 0.14 0  1.24 0.14 0  1.26 0.14 0  1.28 0.14 0  1.3 0.14 0  1.32 0.14 0  1.34 0.14 0  1.36 0.14 0  1.38 0.14 0  1.4 0.14 0  1.42 0.14 0  1.44 0.14 0  1.46 0.14 0  1.48 0.14 0  1
[...]
<PointData  Scalars="sols[i]"> 
<DataArray  type="Float64"  Name="sols[i]"  format="ascii">2.0108071638183031e-04  1.3405945831626386e-04  1.3405945849198888e-04  1.3405945883170325e-04  1.3405945944226476e-04  1.3405946050285372e-04  1.3405946230173193e-04  1.3405946528112793e-04  1.3405947007800586e-04  1.3405947752884558e-04  1.3405948858108806e-04  1.3405950404295363e-04  1.3405952414919078e-04  1.3405954805760731e-04  1.3405957356006136e-04  1.3405959728349210e-04  1.3405961541995551e-04  1.3405962479948535e-04  1.3405962393365755e-04  1.3405961351807498e-04  1.3405959606017231e-04  1.3405957486755160e-04  1.3405955302933244e-04  1.3405953281570861e-04  1.3405951552675940e-04  1.3405950162062767e-04  1.3405949095745474e-04  1.3405948305757350e-04  1.3405947731756848e-04  1.3405947315806946e-04  1.3405947010148298e-04  1.3405946779455541e-04  1.3405946599707763e-04  1.3405946455590745e-04  1.3405946337728211e-04  1.3405946240399569e-04  1.3405946159939923e-04  1.3405946093762017e-04  1.3405946039844171e-04  1.3405945996517840e-04  1.3405945962415992e-04  1.3405945936480334e-04  1.3405945917963869e-04  1.3405945906398497e-04  1.3405945901530554e-04  1.3405945903247757e-04  1.3405945911529628e-04  1.3405945926449602e-04  1.3405945948246362e-04  1.3405945977464930e-04  1.3405946015151749e-04  1.3405946063065302e-04  1.3405946123844730e-04  1.3405946201074597e-04  1.3405946299201659e-04  1.3405946423299190e-04  1.3405946578731357e-04  1.3405946770844534e-04  1.3405947004920432e-04  1.3405947286768377e-04  1.3405947624506648e-04  1.3405948032180613e-04  1.3405948535696413e-04  1.3405949180798394e-04  1.3405950041164836e-04  1.3405951222123376e-04  1.3405952852809879e-04  1.3405955058937071e-04  1.3405957912709422e-04  1.3405961367256547e-04  1.3405965196665076e-04  1.3405968973847468e-04  1.3405972126813328e-04  1.3405974095121007e-04  1.3405974523166499e-04  1.3405973369122215e-04  1.3405970884639270e-04  1.3405967508964072e-04  1.3405963736625611e-04  1.3405960002469184e-04  1.3405956614755902e-04  1.3405953742667726e-04  1.3405951439586579e-04  1.3405949679128499e-04  1.3405948389542060e-04  1.3405947480686097e-04  1.3405946862431357e-04  1.3405946455312664e-04  1.3405946195105804e-04  1.3405946033278034e-04  1.3405945935115101e-04  1.3405945876911106e-04  1.3405945843109130e-04  1.3405945823846999e-04  1.3405945813059025e-04  1.3405945807113857e-04  1.3405945803889459e-04  1.3405945802174511e-04  1.3405945801296817e-04  1.3405945800903287e-04  4.0208946967154851e-04  1.3405945832361350e-04  6.7029187916352832e-05  6.7029188015037754e-05  6.7029188210838202e-05  6.7029188567367109e-05  6.7029189193952793e-05  6.7029190270649630e-05  6.7029192081751937e-05  6.7029195051981631e-05  6.7029199765627568e-05  6.7029206926511826e-05  6.7029217198357171e-05  6.7029230886795046e-05  6.7029247530320065e-05  6.7029265629675561e-05  6.7029282757029350e-05  6.7029296078462730e-05  6.7029303162358320e-05  6.7029302813451883e-05  6.7029295511967379e-05  6.7029283134981170e-05  6.7029268142530977e-05  6.7029252785508005e-05  6.7029238674728647e-05  6.7029226701182171e-05  6.7029217151073691e-05  6.7029209891243923e-05  6.7029204557552874e-05  6.7029200709596890e-05  6.7029197934229416e-05  6.7029195897554076e-05  6.7029194357335698e-05  6.7029193152084426e-05  6.7029192180894826e-05  6.7029191383137689e-05  6.7029190722299402e-05  6.7029190174982395e-05  6.7029189724389341e-05  6.7029189357055533e-05  6.7029189061618843e-05  6.7029188828648272e-05  6.7029188650824100e-05  6.7029188523023796e-05  6.7029188442110425e-05  6.7029188406447559e-05  6.7029188415327338e-05  6.7029188468554753e-05  6.7029188566400963e-05  6.7029188710055596e-05  6.7029188902601310e-05  6.7029189150413239e-05  6.7029189464726322e-05  6.7029189862949972e-05  6.7029190369256083e-05  6.7029191014078535e-05  6.7029191832434633e-05  6.7029192861352049e-05  6.7029194137156286e-05  6.7029195694064724e-05  6.7029197566561335e-05  6.7029199799407418e-05  6.7029202470373852e-05  6.7029205730511984e-05  6.7029209862673177e-05  6.7029215348045993e-05  6.7029222911164460e-05  6.7029233490314036e-05  6.7029248067749120e-05  6.7029267318821550e-05  6.7029291119043014e-05  6.7029318053116069e-05  6.7029345151616717e-05  6.7029368198376612e-05  6.7029382913741647e-05  6.7029386541733868e-05  6.7029378726365642e-05  6.7029361318644273e-05  6.7029337548575989e-05  6.7029311030765038e-05  6.7029284903305779e-05  6.7029261340336197e-05  6.7029241490725242e-05  6.7029225677017070e-05  6.7029213669418867e-05  6.7029204933944717e-05  6.7029198821429533e-05  6.7029194694001235e-05  6.7029191996533823e-05  6.7029190285495299e-05  6.7029189229337642e-05  6.7029188593383408e-05  6.7029188218986673e-05  6.7029188003042033e-05  6.7029187880788440e-05  6.7029187812742895e-05  6.7029187775459933e-05  6.7029187755343213e-05  6.7029187744681751e-05  6.7029187739212697e-05  6.7029187736679418e-05  1.3405945800851863e-04  1.3405945852401445e-04  6.7029188026060431e-05  6.7029188189146474e-05  6.7029188515771852e-05  6.7029189117248566e-05  6.7029190189654266e-05  6.7029192065712006e-05  6.7029195291529840e-05  6.7029200723899495e-05  6.7029209613700419e-05  6.7029223578237194e-05  6.7029244290356347e-05  6.7029272723712494e-05  6.7029308068943970e-05  6.7029346979720263e-05  6.7029383845310786e-05  6.7029412066657866e-05  6.7029426022257387e-05  6.7029423178773271e-05  6.7029405184944405e-05  6.7029376937731826e-05  6.7029344271234972e-05  6.7029312049730360e-05  6.7029283408823073e-05  6.7029259836340539e-05  6.7029241572004016e-05  6.7029228061525622e-05  6.7029218369716269e-05  6.7029211498224992e-05  6.7029206579629513e-05  6.7029202956476791e-05  6.7029200180106877e-05  6.7029197969163711e-05  6.7029196158104826e-05  6.7029194652434347e-05  6.7029193396525043e-05  6.7029192353646206e-05  6.7029191495322324e-05  6.7029190796840063e-05  6.7029190236284189e-05  6.7029189795175708e-05  6.7029189459377099e-05  6.7029189219443917e-05  6.7029189070103715e-05  6.7029189009029658e-05  6.7029189035417566e-05  6.7029189148964068e-05  6.7029189349716446e-05  6.7029189639051964e-05  6.7029190021842362e-05  6.7029190509621640e-05  6.7029191124198145e-05  6.7029191900727999e-05  6.7029192889106243e-05  6.7029194152809144e-05  6.7029195764944319e-05  6.7029197802011544e-05  6.7029200336714853e-05  6.7029203432436910e-05  6.7029207144197830e-05  6.7029211534393935e-05  6.7029216715636022e-05  6.7029222934893336e-05  6.7029230707281958e-05  6.7029240985679692e-05  6.7029255306330992e-05  6.7029275785047317e-05  6.7029304788270724e-05  6.7029344144741186e-05  6.7029393967842004e-05  6.7029451418770364e-05  6.7029509861745365e-05  6.7029559337815646e-05  6.7029589669031294e-05  6.7029594833283064e-05  6.7029574879096351e-05  6.7029534850443148e-05  6.7029482515311518e-05  6.7029426033021793e-05  6.7029372027157383e-05  6.7029324657724232e-05  6.7029285769168513e-05  6.7029255533431124e-05  6.7029233113957037e-05  6.7029217187017094e-05  6.7029206307464234e-05  6.7029199138020105e-05  6.7029194565838794e-05  6.7029191735481602e-05  6.7029190029857354e-05  6.7029189026622559e-05  6.7029188449259952e-05  6.7029188123449908e-05  6.7029187942821826e-05  6.7029187844276278e-05  6.7029187791299450e-05  6.7029187763224373e-05  6.7029187748593160e-05  6.7029187741201557e-05  6.7029187737824471e-05  1.3405945801010723e-04  1.3405945892402079e-04  6.7029188250086700e-05  6.7029188546753566e-05  6.7029189145200748e-05  6.7029190258743911e-05  6.7029192269908665e-05  6.7029195844824405e-05  6.7029202117144701e-05  6.7029212954518926e-05  6.7029231258619267e-05  6.7029261074426155e-05  6.7029307003192180e-05  6.7029372282985470e-05  6.7029455610906517e-05  6.7029548805614124e-05  6.7029637593762399e-05  6.7029704968066899e-05  6.7029736328900357e-05  6.7029725450509301e-05  6.7029677726859169e-05  6.7029607025741140e-05  6.7029528502227765e-05  6.7029453644864550e-05  6.7029389073207894e-05  6.7029337391141052e-05  6.7029298420192405e-05  6.7029270335034995e-05  6.7029250639519296e-05  6.7029236887912265e-05  6.7029227085684917e-05  6.7029219807750572e-05  6.7029214138589712e-05  6.7029209539591636e-05  6.7029205713947841e-05  6.7029202501299866e-05  6.7029199808444649e-05  6.7029197570055027e-05  6.7029195730144953e-05  6.7029194236113641e-05  6.7029193039427052e-05  6.7029192098860092e-05  6.7029191383511345e-05  6.7029190873860376e-05  6.7029190560290527e-05  6.7029190439695167e-05  6.7029190511620136e-05  6.7029190775530178e-05  6.7029191230320775e-05  6.7029191876609746e-05  6.7029192721960662e-05  6.7029193788739218e-05  6.7029195123315208e-05  6.7029196804070841e-05  6.7029198945165068e-05  6.7029201693786386e-05  6.7029205220276507e-05  6.7029209702175016e-05  6.7029215304734976e-05  6.7029222162788584e-05  6.7029230373745401e-05  6.7029240020475471e-05  6.7029251255261346e-05  6.7029264486548004e-05  6.7029280705244474e-05  6.7029301942390481e-05  6.7029331735637087e-05  6.7029375290806716e-05  6.7029438832800513e-05  6.7029527683491370e-05  6.7029643198971499e-05  6.7029779450355887e-05  6.7029920371933043e-05  6.7030039844225968e-05  6.7030110615229067e-05  6.7030117972539452e-05  6.7030064131764149e-05  6.7029963564706145e-05  6.7029836533612425e-05  6.7029703319737043e-05  6.7029579384857011e-05  6.7029473417599351e-05  6.7029388441079945e-05  6.7029323827030889e-05  6.7029276964132995e-05  6.7029244417880559e-05  6.7029222699930855e-05  6.7029208727913966e-05  6.7029200032091393e-05  6.7029194778880590e-05  6.7029191688825022e-05  6.7029189913888839e-05  6.7029188915746543e-05  6.7029188364958951e-05  6.7029188066130673e-05  6.7029187906452034e-05  6.7029187822304582e-05  6.7029187778549273e-05  6.7029187756148897e-05  6.7029187745011945e-05  6.7029187739990801e-05  1.3405945801327909e-04  1.3405945967178516e-04  6.7029188672471890e-05  6.7029189224966898e-05  6.7029190346862538e-05  6.7029192452031130e-05  6.7029196291972312e-05  6.7029203200446444e-05  6.7029215517140021e-05  6.7029237280780661e-05  6.7029275188060204e-05  6.7029339364985046e-05  6.7029442537157321e-05  6.7029595230569977e-05  6.7029796149929279e-05  6.7030024751060332e-05  6.7030243994129263e-05  6.7030409224018902e-05  6.7030481397044068e-05  6.7030444507113870e-05  6.7030315998906729e-05  6.7030136044191890e-05  6.7029944401758413e-05  6.7029767947775342e-05  6.7029620161975414e-05  6.7029505058615913e-05  6.7029420581234917e-05  6.7029361273274762e-05  6.7029320581708544e-05  6.7029292523213021e-05  6.7029272503919344e-05  6.7029257434450261e-05  6.7029245454855387e-05  6.7029235546317150e-05  6.7029227188093057e-05  6.7029220114785704e-05  6.7029214170192633e-05  6.7029209232347714e-05  6.7029205183408050e-05  6.7029201904627970e-05  6.7029199283504356e-05  6.7029197224676354e-05  6.7029195658670687e-05  6.7029194544637410e-05  6.7029193865948358e-05  6.7029193620651465e-05  6.7029193810936956e-05  6.7029194435871305e-05  6.7029195490015057e-05  6.7029196968868541e-05  6.7029198881561798e-05  6.7029201270585578e-05  6.7029204235680124e-05  6.7029207955128200e-05  6.7029212696082208e-05  6.7029218807981890e-05  6.7029226697801222e-05  6.7029236789741309e-05  6.7029249474248752e-05  6.7029265054788988e-05  6.7029283711028952e-05  6.7029305519325969e-05  6.7029330607025505e-05  6.7029359556857688e-05  6.7029394190896868e-05  6.7029438784350391e-05  6.7029501487912501e-05  6.7029595195445662e-05  6.7029736403918094e-05  6.7029940468275222e-05  6.7030213515855021e-05  6.7030543862266271e-05  6.7030892741885855e-05  6.7031189584444148e-05  6.7031358448502951e-05  6.7031363371943052e-05  6.7031216657273410e-05  6.7030959819706638e-05  6.7030645971033256e-05  6.7030326269848121e-05  6.7030037132402202e-05  6.7029796156746851e-05  6.7029607255248661e-05  6.7029466657984022e-05  6.7029366863004044e-05  6.7029299098204318e-05  6.7029254928664507e-05  6.7029227190078665e-05  6.7029210341485533e-05  6.7029200406194757e-05  6.7029194698923038e-05  6.7029191495290055e-05  6.7029189733336367e-05  6.7029188781637334e-05  6.7029188275775678e-05  6.7029188010723362e-05  6.7029187873641623e-05  6.7029187803621394e-05  6.7029187768368939e-05  6.7029187751102180e-05  6.7029187743407028e-05  1.3405945801832835e-04  1.3405946103534698e-04  6.7029189446940230e-05  6.7029190476747884e-05  6.7029192581028013e-05  6.7029196557750285e-05  6.7029203865452079e-05  6.7029217118686147e-05  6.7029241000946452e-05  6.7029283947402210e-05  6.7029360957826967e-05  6.7029496906291530e-05  6.7029726741885093e-05  6.7030084237017698e-05  6.7030572012469577e-05  6.7031137317921196e-05  6.7031683522859910e-05  6.7032093148976940e-05  6.7032259907493955e-05  6.7032140925689485e-05  6.7031792566311086e-05  6.7031333211235285e-05  6.7030866268933539e-05  6.7030451917178850e-05  6.7030115042667287e-05  6.7029859831073052e-05  6.7029677795528360e-05  6.7029553508582865e-05  6.7029470085653141e-05  6.7029413088289417e-05  6.7029372113977704e-05  6.7029340625721258e-05  6.7029314976202264e-05  6.7029293336082405e-05  6.7029274856879876e-05  6.7029259133717303e-05  6.7029245911955632e-05  6.7029234954469100e-05  6.7029226000899715e-05  6.7029218774155162e-05  6.7029213007923052e-05  6.7029208478658366e-05  6.7029205029392279e-05  6.7029202576236152e-05  6.7029201095124383e-05  6.7029200594888937e-05  6.7029201088598367e-05  6.7029202574640017e-05  6.7029205033298606e-05  6.7029208439690609e-05  6.7029212794187014e-05  6.7029218171833137e-05  6.7029224784790511e-05  6.7029233039388254e-05  6.7029243564317259e-05  6.7029257194485108e-05  6.7029274909033890e-05  6.7029297731283188e-05  6.7029326600012685e-05  6.7029362224007595e-05  6.7029404950874548e-05  6.7029454733488709e-05  6.7029511373187500e-05  6.7029575347437524e-05  6.7029649629615087e-05  6.7029742817020945e-05  6.7029873294880053e-05  6.7030072703574105e-05  6.7030384608955863e-05  6.7030852734115403e-05  6.7031499203412022e-05  6.7032304277927796e-05  6.7033178085841165e-05  6.7033926167421639e-05  6.7034329529486837e-05  6.7034303923903618e-05  6.7033903510466239e-05  6.7033245730250052e-05  6.7032468138016692e-05  6.7031700314219012e-05  6.7031027183238966e-05  6.7030480945760268e-05  6.7030062305292965e-05  6.7029757297684128e-05  6.7029545568758110e-05  6.7029405173771160e-05  6.7029315920639893e-05  6.7029261282758367e-05  6.7029228930436360e-05  6.7029210323262372e-05  6.7029199889421352e-05  6.7029194166649120e-05  6.7029191087921336e-05  6.7029189459525554e-05  6.7029188611058329e-05  6.7029188174825926e-05  6.7029187953225085e-05  6.7029187841937668e-05  6.7029187786788979e-05  6.7029187760155078e-05  6.7029187748409523e-05  1.3405945802572183e-04  1.3405946349100381e-04  6.7029190848094040e-05  6.7029192757171618e-05  6.7029196683439227e-05  6.7029204155049255e-05  6.7029217969118325e-05  6.7029243130411025e-05  6.7029288638400546e-05  6.7029371198742627e-05  6.7029522814374012e-05  6.7029802631799780e-05  6.7030305403024214e-05  6.7031139204744088e-05  6.7032328880206236e-05  6.7033734025095243e-05  6.7035102703218242e-05  6.7036127943606461e-05  6.7036514739536219e-05  6.7036141224359979e-05  6.7035190564721946e-05  6.7034018815772923e-05  6.7032888877551145e-05  6.7031924589346317e-05  6.7031163098676901e-05  6.7030602305364492e-05  6.7030214632481059e-05  6.7029957973477344e-05  6.7029789456020831e-05  6.7029674797072981e-05  6.7029591006710867e-05  6.7029524753410658e-05  6.7029469275867932e-05  6.7029421568058428e-05  6.7029380425642524e-05  6.7029345317289938e-05  6.7029315836751390e-05  6.7029291496272173e-05  6.7029271695644347e-05  6.7029255773187553e-05  6.7029243090330795e-05  6.7029233119303644e-05  6.7029225505989829e-05  6.7029220084566523e-05  6.7029216837700896e-05  6.7029215820522693e-05  6.7029217082967526e-05  6.7029220621811901e-05  6.7029226373737136e-05  6.7029234245827161e-05  6.7029244186585663e-05  6.7029256308840551e-05  6.7029271054118872e-05  6.7029289346710584e-05  6.7029312669957225e-05  6.7029343024738779e-05  6.7029382773426031e-05  6.7029434395185754e-05  6.7029500171635241e-05  6.7029581810724474e-05  6.7029680045501341e-05  6.7029794360484032e-05  6.7029923241222904e-05  6.7030065719408323e-05  6.7030225398888072e-05  6.7030418238490323e-05  6.7030684297902590e-05  6.7031100037154642e-05  6.7031780078071734e-05  6.7032847783688972e-05  6.7034373624132293e-05  6.7036336536487317e-05  6.7038547799220011e-05  6.7040460389564208e-05  6.7041416155819966e-05  6.7041239675558084e-05  6.7040148633495968e-05  6.7038465652123879e-05  6.7036539017612540e-05  6.7034700373559735e-05  6.7033144613160687e-05  6.7031916467217778e-05  6.7030995601443641e-05  6.7030338967289730e-05  6.7029893835957572e-05  6.7029606260614829e-05  6.7029428381092980e-05  6.7029322464495398e-05  6.7029261432965348e-05  6.7029227240002583e-05  6.7029208539525124e-05  6.7029198522067341e-05  6.7029193251496916e-05  6.7029190521564357e-05  6.7029189126903223e-05  6.7029188423035094e-05  6.7029188071677479e-05  6.7029187898104815e-05  6.7029187813395666e-05  6.7029187773037229e-05  6.7029187755415827e-05  1.3405945803604658e-04  1.3405946787560158e-04  6.7029193359865579e-05  6.7029196872504842e-05  6.7029204149194753e-05  6.7029218111102934e-05  6.7029244107975138e-05  6.7029291581613290e-05  6.7029377077763042e-05  6.7029531210561011e-05  6.7029817115569500e-05  6.7030367841183715e-05  6.7031433435083522e-05  6.7033359259677068e-05  6.7036264191541677e-05  6.7039752556086410e-05  6.7043182101885832e-05  6.7045777280181279e-05  6.7046700205052585e-05  6.7045562798184283e-05  6.7042957815001005e-05  6.7039984631416799e-05  6.7037282493456865e-05  6.7035066024062029e-05  6.7033361043467319e-05  6.7032141490743795e-05  6.7031328191348503e-05  6.7030808341569313e-05  6.7030474201658179e-05  6.7030245901574426e-05  6.7030074278917517e-05  6.7029933551791479e-05  6.7029812245530775e-05  6.7029706161942721e-05  6.7029614060005899e-05  6.7029535445271033e-05  6.7029469654038572e-05  6.7029415608961402e-05  6.7029371877021620e-05  6.7029336852889615e-05  6.7029308992123363e-05  6.7029287042718030e-05  6.7029270209391915e-05  6.7029258185483733e-05  6.7029251034205723e-05  6.7029248973519506e-05  6.7029252166276939e-05  6.7029260602792504e-05  6.7029274093008732e-05  6.7029292337360575e-05  6.7029315084793405e-05  6.7029342435157661e-05  6.7029375276368965e-05  6.7029415704770084e-05  6.7029467229296876e-05  6.7029534657108786e-05  6.7029623695452758e-05  6.7029740360155735e-05  6.7029890232912640e-05  6.7030077535640018e-05  6.7030304011117970e-05  6.7030567838545580e-05  6.7030863392625962e-05  6.7031183673294878e-05  6.7031528619903238e-05  6.7031923622478943e-05  6.7032451338029509e-05  6.7033292308668217e-05  6.7034747306202823e-05  6.7037163092717109e-05  6.7040737207042247e-05  6.7045487859166401e-05  6.7051115531841044e-05  6.7056056518771410e-05  6.7058251681743081e-05  6.7057473944685898e-05  6.7054550217155229e-05  6.7050298008617529e-05  6.7045550694911770e-05  6.7041178935554386e-05  6.7037625918130763e-05  6.7034893999501634e-05  6.7032885503971558e-05  6.7031484286143254e-05  6.7030559009646014e-05  6.7029978541664742e-05  6.7029630308157527e-05  6.7029429146898381e-05  6.7029316563073076e-05  6.7029255201425596e-05  6.7029222496404599e-05  6.7029205393182657e-05  6.7029196593804439e-05  6.7029192130274050e-05  6.7029189893996969e-05  6.7029188785792241e-05  6.7029188241985786e-05  6.7029187977615473e-05  6.7029187850498216e-05  6.7029187790728644e-05  6.7029187764882769e-05  1.3405945804994326e-04  1.3405947564910575e-04  6.7029197826988851e-05  6.7029204231457075e-05  6.7029217606048603e-05  6.7029243548454134e-05  6.7029292411908650e-05  6.7029382201987329e-05  6.7029542440830709e-05  6.7029822911836626e-05  6.7030331152208316e-05  6.7031331553762881e-05  6.7033406785984055e-05  6.7037544875363025e-05  6.7044121366708218e-05  6.7052005921247699e-05  6.7059942768254261e-05  6.7066557888224398e-05  6.7069553146000864e-05  6.7066999344847961e-05  6.7060298982001901e-05  6.7053003040594818e-05  6.70467060075