<?xml version="1.0"?>
<VTKFile type="UnstructuredGrid"  version="0.1"  >
<UnstructuredGrid>
<Piece  NumberOfPoints="5151" NumberOfCells="10000">
<Points>
<DataArray  type="Float64"  NumberOfComponents="3"  format="ascii">0 0 0  0.02 0 0  0.04 0 0  0.06 0 0  0.08 0 0  0.1 0 0  0.12 0 0  0.14 0 0  0.16 0 0  0.18 0 0  0.2 0 0  0.22 0 0  0.24 0 0  0.26 0 0  0.28 0 0  0.3 0 0  0.32 0 0  0.34 0 0  0.36 0 0  0.38 0 0  0.4 0 0  0.42 0 0  0.44 0 0  0.46 0 0  0.48 0 0  0.5 0 0  0.52 0 0  0.54 0 0  0.5600000000000001 0 0  0.58 0 0  0.6 0 0  0.62 0 0  0.64 0 0  0.66 0 0  0.68 0 0  0.7 0 0  0.72 0 0  0.74 0 0  0.76 0 0  0.78 0 0  0.8 0 0  0.82 0 0  0.84 0 0  0.86 0 0  0.88 0 0  0.9 0 0  0.92 0 0  0.9399999999999999 0 0  0.96 0 0  0.98 0 0  1 0 0  1.02 0 0  1.04 0 0  1.06 0 0  1.08 0 0  1.1 0 0  1.12 0 0  1.14 0 0  1.16 0 0  1.18 0 0  1.2 0 0  1.22 0 0  1.24 0 0  1.26 0 0  1.28 0 0  1.3 0 0  1.32 0 0  1.34 0 0  1.36 0 0  1.38 0 0  1.4 0 0  1.42 0 0  1.44 0 0  1.46 0 0  1.48 0 0  1.5 0 0  1.52 0 0  1.54 0 0  1.56 0 0  1.58 0 0  1.6 0 0  1.62 0 0  1.64 0 0  1.66 0 0  1.68 0 0  1.7 0 0  1.72 0 0  1.74 0 0  1.76 0 0  1.78 0 0  1.8 0 0  1.82 0 0  1.84 0 0  1.86 0 0  1.88 0 0  1.9 0 0  1.92 0 0  1.94 0 0  1.96 0 0  1.98 0 0  2 0 0  0 0.02 0  0.02 0.02 0  0.04 0.02 0  0.06 0.02 0  0.08 0.02 0  0.1 0.02 0  0.12 0.02 0  0.14 0.02 0  0.16 0.02 0  0.18 0.02 0  0.2 0.02 0  0.22 0.02 0  0.24 0.02 0  0.26 0.02 0  0.28 0.02 0  0.3 0.02 0  0.32 0.02 0  0.34 0.02 0  0.36 0.02 0  0.38 0.02 0  0.4 0.02 0  0.42 0.02 0  0.44 0.02 0  0.46 0.02 0  0.48 0.02 0  0.5 0.02 0  0.52 0.02 0  0.54 0.02 0  0.5600000000000001 0.02 0  0.58 0.02 0  0.6 0.02 0  0.62 0.02 0  0.64 0.02 0  0.66 0.02 0  0.68 0.02 0  0.7 0.02 0  0.72 0.02 0  0.74 0.02 0  0.76 0.02 0  0.78 0.02 0  0.8 0.02 0  0.82 0.02 0  0.84 0.02 0  0.86 0.02 0  0.88 0.02 0  0.9 0.02 0  0.92 0.02 0  0.9399999999999999 0.02 0  0.96 0.02 0  0.98 0.02 0  1 0.02 0  1.02 0.02 0  1.04 0.02 0  1.06 0.02 0  1.08 0.02 0  1.1 0.02 0  1.12 0.02 0  1.14 0.02 0  1.16 0.02 0  1.18 0.02 0  1.2 0.02 0  1.22 0.02 0  1.24 0.02 0  1.26 0.02 0  1.28 0.02 0  1.3 0.02 0  1.32 0.02 0  1.34 0.02 0  1.36 0.02 0  1.38 0.02 0  1.4 0.02 0  1.42 0.02 0  1.44 0.02 0  1.46 0.02 0  1.48 0.02 0  1.5 0.02 0  1.52 0.02 0  1.54 0.02 0  1.56 0.02 0  1.58 0.02 0  1.6 0.02 0  1.62 0.02 0  1.64 0.02 0  1.66 0.02 0  1.68 0.02 0  1.7 0.02 0  1.72 0.02 0  1.74 0.02 0  1.76 0.02 0  1.78 0.02 0  1.8 0.02 0  1.82 0.02 0  1.84 0.02 0  1.86 0.02 0  1.88 0.02 0  1.9 0.02 0  1.92 0.02 0  1.94 0.02 0  1.96 0.02 0  1.98 0.02 0  2 0.02 0  0 0.04 0  0.02 0.04 0  0.04 0.04 0  0.06 0.04 0  0.08 0.04 0  0.1 0.04 0  0.12 0.04 0  0.14 0.04 0  0.16 0.04 0  0.18 0.04 0  0.2 0.04 0  0.22 0.04 0  0.24 0.04 0  0.26 0.04 0  0.28 0.04 0  0.3 0.04 0  0.32 0.04 0  0.34 0.04 0  0.36 0.04 0  0.38 0.04 0  0.4 0.04 0  0.42 0.04 0  0.44 0.04 0  0.46 0.04 0  0.48 0.04 0  0.5 0.04 0  0.52 0.04 0  0.54 0.04 0  0.5600000000000001 0.04 0  0.58 0.04 0  0.6 0.04 0  0.62 0.04 0  0.64 0.04 0  0.66 0.04 0  0.68 0.04 0  0.7 0.04 0  0.72 0.04 0  0.74 0.04 0  0.76 0.04 0  0.78 0.04 0  0.8 0.04 0  0.82 0.04 0  0.84 0.04 0  0.86 0.04 0  0.88 0.04 0  0.9 0.04 0  0.92 0.04 0  0.9399999999999999 0.04 0  0.96 0.04 0  0.98 0.04 0  1 0.04 0  1.02 0.04 0  1.04 0.04 0  1.06 0.04 0  1.08 0.04 0  1.1 0.04 0  1.12 0.04 0  1.14 0.04 0  1.16 0.04 0  1.18 0.04 0  1.2 0.04 0  1.22 0.04 0  1.24 0.04 0  1.26 0.04 0  1.28 0.04 0  1.3 0.04 0  1.32 0.04 0  1.34 0.04 0  1.36 0.04 0  1.38 0.04 0  1.4 0.04 0  1.42 0.04 0  1.44 0.04 0  1.46 0.04 0  1.48 0.04 0  1.5 0.04 0  1.52 0.04 0  1.54 0.04 0  1.56 0.04 0  1.58 0.04 0  1.6 0.04 0  1.62 0.04 0  1.64 0.04 0  1.66 0.04 0  1.68 0.04 0  1.7 0.04 0  1.72 0.04 0  1.74 0.04 0  1.76 0.04 0  1.78 0.04 0  1.8 0.04 0  1.82 0.04 0  1.84 0.04 0  1.86 0.04 0  1.88 0.04 0  1.9 0.04 0  1.92 0.04 0  1.94 0.04 0  1.96 0.04 0  1.98 0.04 0  2 0.04 0  0 0.06 0  0.02 0.06 0  0.04 0.06 0  0.06 0.06 0  0.08 0.06 0  0.1 0.06 0  0.12 0.06 0  0.14 0.06 0  0.16 0.06 0  0.18 0.06 0  0.2 0.06 0  0.22 0.06 0  0.24 0.06 0  0.26 0.06 0  0.28 0.06 0  0.3 0.06 0  0.32 0.06 0  0.34 0.06 0  0.36 0.06 0  0.38 0.06 0  0.4 0.06 0  0.42 0.06 0  0.44 0.06 0  0.46 0.06 0  0.48 0.06 0  0.5 0.06 0  0.52 0.06 0  0.54 0.06 0  0.5600000000000001 0.06 0  0.58 0.06 0  0.6 0.06 0  0.62 0.06 0  0.64 0.06 0  0.66 0.06 0  0.68 0.06 0  0.7 0.06 0  0.72 0.06 0  0.74 0.06 0  0.76 0.06 0  0.78 0.06 0  0.8 0.06 0  0.82 0.06 0  0.84 0.06 0  0.86 0.06 0  0.88 0.06 0  0.9 0.06 0  0.92 0.06 0  0.9399999999999999 0.06 0  0.96 0.06 0  0.98 0.06 0  1 0.06 0  1.02 0.06 0  1.04 0.06 0  1.06 0.06 0  1.08 0.06 0  1.1 0.06 0  1.12 0.06 0  1.14 0.06 0  1.16 0.06 0  1.18 0.06 0  1.2 0.06 0  1.22 0.06 0  1.24 0.06 0  1.26 0.06 0  1.28 0.06 0  1.3 0.06 0  1.32 0.06 0  1.34 0.06 0  1.36 0.06 0  1.38 0.06 0  1.4 0.06 0  1.42 0.06 0  1.44 0.06 0  1.46 0.06 0  1.48 0.06 0  1.5 0.06 0  1.52 0.06 0  1.54 0.06 0  1.56 0.06 0  1.58 0.06 0  1.6 0.06 0  1.62 0.06 0  1.64 0.06 0  1.66 0.06 0  1.68 0.06 0  1.7 0.06 0  1.72 0.06 0  1.74 0.06 0  1.76 0.06 0  1.78 0.06 0  1.8 0.06 0  1.82 0.06 0  1.84 0.06 0  1.86 0.06 0  1.88 0.06 0  1.9 0.06 0  1.92 0.06 0  1.94 0.06 0  1.96 0.06 0  1.98 0.06 0  2 0.06 0  0 0.08 0  0.02 0.08 0  0.04 0.08 0  0.06 0.08 0  0.08 0.08 0  0.1 0.08 0  0.12 0.08 0  0.14 0.08 0  0.16 0.08 0  0.18 0.08 0  0.2 0.08 0  0.22 0.08 0  0.24 0.08 0  0.26 0.08 0  0.28 0.08 0  0.3 0.08 0  0.32 0.08 0  0.34 0.08 0  0.36 0.08 0  0.38 0.08 0  0.4 0.08 0  0.42 0.08 0  0.44 0.08 0  0.46 0.08 0  0.48 0.08 0  0.5 0.08 0  0.52 0.08 0  0.54 0.08 0  0.5600000000000001 0.08 0  0.58 0.08 0  0.6 0.08 0  0.62 0.08 0  0.64 0.08 0  0.66 0.08 0  0.68 0.08 0  0.7 0.08 0  0.72 0.08 0  0.74 0.08 0  0.76 0.08 0  0.78 0.08 0  0.8 0.08 0  0.82 0.08 0  0.84 0.08 0  0.86 0.08 0  0.88 0.08 0  0.9 0.08 0  0.92 0.08 0  0.9399999999999999 0.08 0  0.96 0.08 0  0.98 0.08 0  1 0.08 0  1.02 0.08 0  1.04 0.08 0  1.06 0.08 0  1.08 0.08 0  1.1 0.08 0  1.12 0.08 0  1.14 0.08 0  1.16 0.08 0  1.18 0.08 0  1.2 0.08 0  1.22 0.08 0  1.24 0.08 0  1.26 0.08 0  1.28 0.08 0  1.3 0.08 0  1.32 0.08 0  1.34 0.08 0  1.36 0.08 0  1.38 0.08 0  1.4 0.08 0  1.42 0.08 0  1.44 0.08 0  1.46 0.08 0  1.48 0.08 0  1.5 0.08 0  1.52 0.08 0  1.54 0.08 0  1.56 0.08 0  1.58 0.08 0  1.6 0.08 0  1.62 0.08 0  1.64 0.08 0  1.66 0.08 0  1.68 0.08 0  1.7 0.08 0  1.72 0.08 0  1.74 0.08 0  1.76 0.08 0  1.78 0.08 0  1.8 0.08 0  1.82 0.08 0  1.84 0.08 0  1.86 0.08 0  1.88 0.08 0  1.9 0.08 0  1.92 0.08 0  1.94 0.08 0  1.96 0.08 0  1.98 0.08 0  2 0.08 0  0 0.1 0  0.02 0.1 0  0.04 0.1 0  0.06 0.1 0  0.08 0.1 0  0.1 0.1 0  0.12 0.1 0  0.14 0.1 0  0.16 0.1 0  0.18 0.1 0  0.2 0.1 0  0.22 0.1 0  0.24 0.1 0  0.26 0.1 0  0.28 0.1 0  0.3 0.1 0  0.32 0.1 0  0.34 0.1 0  0.36 0.1 0  0.38 0.1 0  0.4 0.1 0  0.42 0.1 0  0.44 0.1 0  0.46 0.1 0  0.48 0.1 0  0.5 0.1 0  0.52 0.1 0  0.54 0.1 0  0.5600000000000001 0.1 0  0.58 0.1 0  0.6 0.1 0  0.62 0.1 0  0.64 0.1 0  0.66 0.1 0  0.68 0.1 0  0.7 0.1 0  0.72 0.1 0  0.74 0.1 0  0.76 0.1 0  0.78 0.1 0  0.8 0.1 0  0.82 0.1 0  0.84 0.1 0  0.86 0.1 0  0.88 0.1 0  0.9 0.1 0  0.92 0.1 0  0.9399999999999999 0.1 0  0.96 0.1 0  0.98 0.1 0  1 0.1 0  1.02 0.1 0  1.04 0.1 0  1.06 0.1 0  1.08 0.1 0  1.1 0.1 0  1.12 0.1 0  1.14 0.1 0  1.16 0.1 0  1.18 0.1 0  1.2 0.1 0  1.22 0.1 0  1.24 0.1 0  1.26 0.1 0  1.28 0.1 0  1.3 0.1 0  1.32 0.1 0  1.34 0.1 0  1.36 0.1 0  1.38 0.1 0  1.4 0.1 0  1.42 0.1 0  1.44 0.1 0  1.46 0.1 0  1.48 0.1 0  1.5 0.1 0  1.52 0.1 0  1.54 0.1 0  1.56 0.1 0  1.58 0.1 0  1.6 0.1 0  1.62 0.1 0  1.64 0.1 0  1.66 0.1 0  1.68 0.1 0  1.7 0.1 0  1.72 0.1 0  1.74 0.1 0  1.76 0.1 0  1.78 0.1 0  1.8 0.1 0  1.82 0.1 0  1.84 0.1 0  1.86 0.1 0  1.88 0.1 0  1.9 0.1 0  1.92 0.1 0  1.94 0.1 0  1.96 0.1 0  1.98 0.1 0  2 0.1 0  0 0.12 0  0.02 0.12 0  0.04 0.12 0  0.06 0.12 0  0.08 0.12 0  0.1 0.12 0  0.12 0.12 0  0.14 0.12 0  0.16 0.12 0  0.18 0.12 0  0.2 0.12 0  0.22 0.12 0  0.24 0.12 0  0.26 0.12 0  0.28 0.12 0  0.3 0.12 0  0.32 0.12 0  0.34 0.12 0  0.36 0.12 0  0.38 0.12 0  0.4 0.12 0  0.42 0.12 0  0.44 0.12 0  0.46 0.12 0  0.48 0.12 0  0.5 0.12 0  0.52 0.12 0  0.54 0.12 0  0.5600000000000001 0.12 0  0.58 0.12 0  0.6 0.12 0  0.62 0.12 0  0.64 0.12 0  0.66 0.12 0  0.68 0.12 0  0.7 0.12 0  0.72 0.12 0  0.74 0.12 0  0.76 0.12 0  0.78 0.12 0  0.8 0.12 0  0.82 0.12 0  0.84 0.12 0  0.86 0.12 0  0.88 0.12 0  0.9 0.12 0  0.92 0.12 0  0.9399999999999999 0.12 0  0.96 0.12 0  0.98 0.12 0  1 0.12 0  1.02 0.12 0  1.04 0.12 0  1.06 0.12 0  1.08 0.12 0  1.1 0.12 0  1.12 0.12 0  1.14 0.12 0  1.16 0.12 0  1.18 0.12 0  1.2 0.12 0  1.22 0.12 0  1.24 0.12 0  1.26 0.12 0  1.28 0.12 0  1.3 0.12 0  1.32 0.12 0  1.34 0.12 0  1.36 0.12 0  1.38 0.12 0  1.4 0.12 0  1.42 0.12 0  1.44 0.12 0  1.46 0.12 0  1.48 0.12 0  1.5 0.12 0  1.52 0.12 0  1.54 0.12 0  1.56 0.12 0  1.58 0.12 0  1.6 0.12 0  1.62 0.12 0  1.64 0.12 0  1.66 0.12 0  1.68 0.12 0  1.7 0.12 0  1.72 0.12 0  1.74 0.12 0  1.76 0.12 0  1.78 0.12 0  1.8 0.12 0  1.82 0.12 0  1.84 0.12 0  1.86 0.12 0  1.88 0.12 0  1.9 0.12 0  1.92 0.12 0  1.94 0.12 0  1.96 0.12 0  1.98 0.12 0  2 0.12 0  0 0.14 0  0.02 0.14 0  0.04 0.14 0  0.06 0.14 0  0.08 0.14 0  0.1 0.14 0  0.12 0.14 0  0.14 0.14 0  0.16 0.14 0  0.18 0.14 0  0.2 0.14 0  0.22 0.14 0  0.24 0.14 0  0.26 0.14 0  0.28 0.14 0  0.3 0.14 0  0.32 0.14 0  0.34 0.14 0  0.36 0.14 0  0.38 0.14 0  0.4 0.14 0  0.42 0.14 0  0.44 0.14 0  0.46 0.14 0  0.48 0.14 0  0.5 0.14 0  0.52 0.14 0  0.54 0.14 0  0.5600000000000001 0.14 0  0.58 0.14 0  0.6 0.14 0  0.62 0.14 0  0.64 0.14 0  0.66 0.14 0  0.68 0.14 0  0.7 0.14 0  0.72 0.14 0  0.74 0.14 0  0.76 0.14 0  0.78 0.14 0  0.8 0.14 0  0.82 0.14 0  0.84 0.14 0  0.86 0.14 0  0.88 0.14 0  0.9 0.14 0  0.92 0.14 0  0.9399999999999999 0.14 0  0.96 0.14 0  0.98 0.14 0  1 0.14 0  1.02 0.14 0  1.04 0.14 0  1.06 0.14 0  1.08 0.14 0  1.1 0.14 0  1.12 0.14 0  1.14 0.14 0  1.16 0.14 0  1.18 0.14 0  1.2 0.14 0  1.22 0.14 0  1.24 0.14 0  1.26 0.14 0  1.28 0.14 0  1.3 0.14 0  1.32 0.14 0  1.34 0.14 0  1.36 0.14 0  1.38 0.14 0  1.4 0.14 0  1.42 0.14 0  1.44 0.14 0  1.46 0.14 0  1.48 0.14 0  1
[...]
<PointData  Scalars="sols[i]"> 
<DataArray  type="Float64"  Name="sols[i]"  format="ascii">2.4579870131165518e-01  1.6360283095423614e-01  1.6360285539192751e-01  1.6360290008395950e-01  1.6360297349978170e-01  1.6360308691377182e-01  1.6360325399751957e-01  1.6360348989825413e-01  1.6360381022380258e-01  1.6360423022317905e-01  1.6360476431440063e-01  1.6360542596588754e-01  1.6360622785658799e-01  1.6360718215617262e-01  1.6360830070048110e-01  1.6360959479467313e-01  1.6361107435781194e-01  1.6361274612685070e-01  1.6361461072944589e-01  1.6361665858398966e-01  1.6361886487676311e-01  1.6362118384447327e-01  1.6362354242463747e-01  1.6362583907476533e-01  1.6362794270054210e-01  1.6362969600713770e-01  1.6363092717107505e-01  1.6363146715569593e-01  1.6363117279971523e-01  1.6362995394390589e-01  1.6362780154646578e-01  1.6362481292133693e-01  1.6362120999452709e-01  1.6361734696394251e-01  1.6361370496172392e-01  1.6361087333951663e-01  1.6360952168147475e-01  1.6361037388875682e-01  1.6361415319518527e-01  1.6362150491531674e-01  1.6363299392826025e-01  1.6364906875553864e-01  1.6367002518806970e-01  1.6369598269229915e-01  1.6372687464746102e-01  1.6376245280714199e-01  1.6380230570959348e-01  1.6384588983179274e-01  1.6389256826756390e-01  1.6394164670063485e-01  1.6399239396027201e-01  1.6404404254246679e-01  1.6409577812356166e-01  1.6414674734443782e-01  1.6419611677203774e-01  1.6424318247555808e-01  1.6428746128547581e-01  1.6432865023267493e-01  1.6436649438887757e-01  1.6440074437466454e-01  1.6443133349649350e-01  1.6445868920796472e-01  1.6448387585368016e-01  1.6450872869104530e-01  1.6453614242479475e-01  1.6456981767716425e-01  1.6461355871032796e-01  1.6467141916904365e-01  1.6474866702307331e-01  1.6485187425722764e-01  1.6498855472062585e-01  1.6516868279492414e-01  1.6540742635008643e-01  1.6572344870842945e-01  1.6612919052432346e-01  1.6661453746330446e-01  1.6712874239464764e-01  1.6756918511866953e-01  1.6779628347964226e-01  1.6769562604505453e-01  1.6726196553323958e-01  1.6662173731446131e-01  1.6595759711097591e-01  1.6540110252529122e-01  1.6498931909296205e-01  1.6469669946398843e-01  1.6448111761785433e-01  1.6430910192678880e-01  1.6416182809053137e-01  1.6403227451466901e-01  1.6392001297982622e-01  1.6382665558918094e-01  1.6375310051576644e-01  1.6369853188426206e-01  1.6366056411125773e-01  1.6363588193446210e-01  1.6362094659282089e-01  1.6361256101118712e-01  1.6360822928697699e-01  1.6360630970038911e-01  3.6414688126781825e-01  1.6360283069359458e-01  7.6538572389284160e-02  7.6538587483868700e-02  7.6538614971332436e-02  7.6538658652316363e-02  7.6538723375191575e-02  7.6538815089944687e-02  7.6538940689447402e-02  7.6539107718494759e-02  7.6539324073832002e-02  7.6539597764924028e-02  7.6539936751537793e-02  7.6540348835978156e-02  7.6540841553757274e-02  7.6541421983023800e-02  7.6542096373328677e-02  7.6542869487866982e-02  7.6543743568697406e-02  7.6544716870546481e-02  7.6545781775814101e-02  7.6546922592751490e-02  7.6548113229728376e-02  7.6549314933114357e-02  7.6550475214961167e-02  7.6551527896639382e-02  7.6552393868712543e-02  7.6552984894777978e-02  7.6553209196050312e-02  7.6552978833501303e-02  7.6552218460860993e-02  7.6550874638337901e-02  7.6548924686106745e-02  7.6546383949233479e-02  7.6543310372912773e-02  7.6539805478203438e-02  7.6536011241672128e-02  7.6532103369790258e-02  7.6528284418542855e-02  7.6524774150264208e-02  7.6521767232286625e-02  7.6519427410398341e-02  7.6517877040031698e-02  7.6517167952593459e-02  7.6517256157825495e-02  7.6517978343701026e-02  7.6519029186333729e-02  7.6519937699959739e-02  7.6520040196629682e-02  7.6518444478075792e-02  7.6513976029522757e-02  7.6505095841776227e-02  7.6489787187887168e-02  7.6465420665512540e-02  7.6428620012265303e-02  7.6375152543392985e-02  7.6299846686519110e-02  7.6196490916719206e-02  7.6057652134541825e-02  7.5874476682751338e-02  7.5636651575262587e-02  7.5332653600429109e-02  7.4950225320286529e-02  7.4476972715145265e-02  7.3901221795309460e-02  7.3213057880091262e-02  7.2405194469837938e-02  7.1473869885422467e-02  7.0419694711235686e-02  6.9246718648094466e-02  6.7958820846584403e-02  6.6556872065754932e-02  6.5039816667249228e-02  6.3408411887172750e-02  6.1667899297202518e-02  5.9835338570977725e-02  5.7968479052314094e-02  5.6222072917718656e-02  5.4899126292719022e-02  5.4424951371371676e-02  5.5188159060563027e-02  5.7334950487268783e-02  6.0644099519605595e-02  6.4516668946030781e-02  6.8211690978993281e-02  7.1212028188804358e-02  7.3358359971857176e-02  7.4750242221317417e-02  7.5586480220303884e-02  7.6059106391289447e-02  7.6312583822698246e-02  7.6441774491748937e-02  7.6503849480084610e-02  7.6531290130381929e-02  7.6541750336495337e-02  7.6544459417818914e-02  7.6544044344426562e-02  7.6542697685365549e-02  7.6541366591916460e-02  7.6540390905547928e-02  7.6539841842286460e-02  1.6360606396249469e-01  1.6360285425417975e-01  7.6538586985630111e-02  7.6538609057701629e-02  7.6538647137209079e-02  7.6538703982641426e-02  7.6538782562712709e-02  7.6538886088452843e-02  7.6539018123473412e-02  7.6539182583592172e-02  7.6539383637681452e-02  7.6539625567127650e-02  7.6539912619382935e-02  7.6540248855790152e-02  7.6540637961769048e-02  7.6541082963766327e-02  7.6541585789821523e-02  7.6542146618304913e-02  7.6542762985609900e-02  7.6543428669896357e-02  7.6544132425905131e-02  7.6544856706602660e-02  7.6545576570438742e-02  7.6546259035413899e-02  7.6546863332383031e-02  7.6547342276390470e-02  7.6547644253281921e-02  7.6547716974233931e-02  7.6547511997694925e-02  7.6546989746969635e-02  7.6546124600119350e-02  7.6544909475887116e-02  7.6543359334495242e-02  7.6541513039825107e-02  7.6539433115155570e-02  7.6537203096775933e-02  7.6534922470037181e-02  7.6532699737204002e-02  7.6530645379462234e-02  7.6528864793516532e-02  7.6527432126601722e-02  7.6526364024425073e-02  7.6525616508705999e-02  7.6525051264385191e-02  7.6524402935801539e-02  7.6523241072346745e-02  7.6520926945254711e-02  7.6516562044925199e-02  7.6508924100239323e-02  7.6496381866840935e-02  7.6476773413729826e-02  7.6447231386843659e-02  7.6403953564940730e-02  7.6341935630616267e-02  7.6254705549082716e-02  7.6134100989234468e-02  7.5970086844563439e-02  7.5750511285020208e-02  7.5460693304297513e-02  7.5083028483944728e-02  7.4597017289314074e-02  7.3979920485256437e-02  7.3207715073902863e-02  7.2256240309742412e-02  7.1103099571255324e-02  6.9729630098259249e-02  6.8122554088196466e-02  6.6277228355691928e-02  6.4201354601211583e-02  6.1911363444836623e-02  5.9419882268815102e-02  5.6729710349799761e-02  5.3842496872916500e-02  5.0771005083941799e-02  4.7534799416047699e-02  4.4155831580627566e-02  4.0709171503026005e-02  3.7450306759684943e-02  3.4935011000658982e-02  3.3974342241432511e-02  3.5344450746279427e-02  3.9483627249255610e-02  4.6192519826774532e-02  5.4223654319710275e-02  6.1746082677022973e-02  6.7563252774025334e-02  7.1463571108456830e-02  7.3823486531809174e-02  7.5150162468215070e-02  7.5857245736857051e-02  7.6219203900999510e-02  7.6398284508954237e-02  7.6483772283797685e-02  7.6522606259196352e-02  7.6538758104799265e-02  7.6544246045563716e-02  7.6545016414940395e-02  7.6543972665760115e-02  7.6542502206336474e-02  7.6541238372837286e-02  7.6540447884797552e-02  1.6360686911194056e-01  1.6360289688989926e-01  7.6538613192661031e-02  7.6538645689749774e-02  7.6538698198897720e-02  7.6538771810021777e-02  7.6538867477732184e-02  7.6538985721853109e-02  7.6539126786373479e-02  7.6539290871148774e-02  7.6539478263549066e-02  7.6539689358907412e-02  7.6539924596557313e-02  7.6540184324366115e-02  7.6540468578731827e-02  7.6540776749849396e-02  7.6541107103062181e-02  7.6541456148595657e-02  7.6541817893442013e-02  7.6542183059399735e-02  7.6542538404748020e-02  7.6542866315178704e-02  7.6543144864258145e-02  7.6543348576079667e-02  7.6543450073527627e-02  7.6543422628117544e-02  7.6543243304234621e-02  7.6542896641479036e-02  7.6542378021396282e-02  7.6541696188442074e-02  7.6540874458750949e-02  7.6539950281154651e-02  7.6538972978593578e-02  7.6537999636976925e-02  7.6537089264509472e-02  7.6536295504636823e-02  7.6535658343891574e-02  7.6535195404879491e-02  7.6534893575159010e-02  7.6534699942832171e-02  7.6534499618753832e-02  7.6534077712876944e-02  7.6533105131023973e-02  7.6531093396577224e-02  7.6527326617717328e-02  7.6520790280057677e-02  7.6510079274263745e-02  7.6493280780279005e-02  7.6467825791883146e-02  7.6430291946637544e-02  7.6376126650547591e-02  7.6299256886608366e-02  7.6191584209185370e-02  7.6042397239122816e-02  7.5837783235480696e-02  7.5560135241109980e-02  7.5187746450178575e-02  7.4694225599503908e-02  7.4047494792324836e-02  7.3208880389759257e-02  7.2133382473531307e-02  7.0771610225150036e-02  6.9072074712183087e-02  6.6984192332906409e-02  6.4464255954609306e-02  6.1479886544883948e-02  5.8012863045836610e-02  5.4071845155737014e-02  4.9711171477043813e-02  4.5020803331551749e-02  4.0080708049794897e-02  3.4948875456563756e-02  2.9716261528581034e-02  2.4583102332378187e-02  1.9854210777791648e-02  1.5889588079299164e-02  1.3123791192567263e-02  1.2080391467758987e-02  1.2824554984317664e-02  1.3422797004979385e-02  1.1799313720036696e-02  1.1538083111729939e-02  1.8204659199671576e-02  3.2426095905151914e-02  4.8029194805250690e-02  6.0111491740171774e-02  6.7789403766149614e-02  7.2121548577258235e-02  7.4390425788424738e-02  7.5523336964021859e-02  7.6072030973982421e-02  7.6332524343715721e-02  7.6454203006352112e-02  7.6509787000562060e-02  7.6534034587213945e-02  7.6543489291929084e-02  7.6546084232578374e-02  7.6545687675535712e-02  7.6544227234563653e-02  7.6542684834277425e-02  7.6541585266669640e-02  1.6360862513656177e-01  1.6360296614648429e-01  7.6538654078506491e-02  7.6538699272785116e-02  7.6538768231188103e-02  7.6538859580504714e-02  7.6538972160947738e-02  7.6539104136650479e-02  7.6539252944366809e-02  7.6539415605698338e-02  7.6539589048256362e-02  7.6539770312057026e-02  7.6539956623207117e-02  7.6540145339419899e-02  7.6540333760426876e-02  7.6540518790391324e-02  7.6540696452058354e-02  7.6540861289656051e-02  7.6541005749288835e-02  7.6541119679454594e-02  7.6541190137060955e-02  7.6541201668565401e-02  7.6541137256984346e-02  7.6540980147522530e-02  7.6540716625249194e-02  7.6540339517584169e-02  7.6539852138906392e-02  7.6539271762145020e-02  7.6538631695279177e-02  7.6537981247819714e-02  7.6537383024531183e-02  7.6536907462949166e-02  7.6536624727029365e-02  7.6536594251931739e-02  7.6536852442624204e-02  7.6537399209190310e-02  7.6538184051618108e-02  7.6539092053446681e-02  7.6539929227191647e-02  7.6540404231125000e-02  7.6540096269001684e-02  7.6538399081929553e-02  7.6534465273365881e-02  7.6527123991312743e-02  7.6514742642014286e-02  7.6495068529835661e-02  7.6465024709408483e-02  7.6420445425779429e-02  7.6355740653783616e-02  7.6263452141982060e-02  7.6133631825912373e-02  7.5952968092642487e-02  7.5703660134797943e-02  7.5362105457171452e-02  7.4897581252631004e-02  7.4271188808724270e-02  7.3435083220494773e-02  7.2331219570788863e-02  7.0889020406540312e-02  6.9023404412295861e-02  6.6636629445879517e-02  6.3625655447100304e-02  5.9889256565937098e-02  5.5339422409292731e-02  4.9929719673075870e-02  4.3676289547095931e-02  3.6672690277246150e-02  2.9164129511265333e-02  2.1684780957810301e-02  1.5091043775063687e-02  1.0308087928325107e-02  7.9263958025296427e-03  9.3271467857722456e-03  2.0556643300453044e-02  5.0245891838966480e-02  1.0382537205676234e-01  1.7790265222625493e-01  2.5592520739870339e-01  3.1149186897689307e-01  3.2897840059022765e-01  3.0237608358578605e-01  2.0515931505109755e-01  5.3095844660309255e-02  6.7755364313519112e-03  2.4604260996773469e-02  4.7456118888097275e-02  6.1966436498227723e-02  6.9625744833334349e-02  7.3353368162139471e-02  7.5093802237844370e-02  7.5890466410801175e-02  7.6252939147374549e-02  7.6418118810611599e-02  7.6493445799774865e-02  7.6527306271281972e-02  7.6541674860792039e-02  7.6546764909147677e-02  7.6547501383989733e-02  7.6546377419295680e-02  7.6544736655094273e-02  7.6543386173911640e-02  1.6361183429880460e-01  1.6360307206235936e-01  7.6538713366523833e-02  7.6538771615370454e-02  7.6538857001783575e-02  7.6538964946610333e-02  7.6539091880064025e-02  7.6539233753922548e-02  7.6539385631484755e-02  7.6539541929386765e-02  7.6539696848643257e-02  7.6539844755926137e-02  7.6539980425928092e-02  7.6540099114471155e-02  7.6540196445481087e-02  7.6540268104354797e-02  7.6540309363211684e-02  7.6540314518799155e-02  7.6540276383339670e-02  7.6540186022619916e-02  7.6540032955869433e-02  7.6539805938846017e-02  7.6539494508454514e-02  7.6539091520907127e-02  7.6538596732648484e-02  7.6538021018981536e-02  7.6537390742482309e-02  7.6536750758771213e-02  7.6536164783077079e-02  7.6535712435213787e-02  7.6535482142046501e-02  7.6535560094653829e-02  7.6536015424641043e-02  7.6536881880076138e-02  7.6538136536994927e-02  7.6539676320196121e-02  7.6541292998161856e-02  7.6542646226729821e-02  7.6543231873355280e-02  7.6542339110940494e-02  7.6538984053712997e-02  7.6531807334728072e-02  7.6518940123168455e-02  7.6497809773357572e-02  7.6464851848150939e-02  7.6415162146889246e-02  7.6342034888433066e-02  7.6236369309846591e-02  7.6085923119561541e-02  7.5874329224083201e-02  7.5579718627434289e-02  7.5172775537811903e-02  7.4614229760567946e-02  7.3851938182827745e-02  7.2817996731951690e-02  7.1426773431202961e-02  6.9574270445960956e-02  6.7136542375894157e-02  6.3965756908448843e-02  5.9888345072607485e-02  5.4719286146134756e-02  4.8303831099357333e-02  4.0563484996582209e-02  3.1587638329405497e-02  2.1897434215661392e-02  1.2880508203735059e-02  7.1053285901397402e-03  5.1348770316165301e-03  1.5505561789206925e-02  5.8420870185009841e-02  1.3357745538341001e-01  2.2241998033172963e-01  3.0197440499257971e-01  3.6307107562964358e-01  4.1491173691447780e-01  5.1944568112508105e-01  8.7859276438785028e-01  9.2711799495444280e-01  9.6359203287505901e-01  9.8030129789941611e-01  9.0426870297649398e-01  9.2400996708909700e-01  3.8413421183517843e-01  1.4546502631214028e-01  6.9519387448157312e-03  2.9832424647986709e-02  5.4375602296561992e-02  6.6681596795996126e-02  7.2230481870733013e-02  7.4652145372417697e-02  7.5704309196333378e-02  7.6167270643935539e-02  7.6375727641092558e-02  7.6471931845800270e-02  7.6516919037146844e-02  7.6537577340669502e-02  7.6546257052616903e-02  7.6548947773641948e-02  7.6548749782550038e-02  7.6547406954401417e-02  7.6546029121517228e-02  1.6361732247186120e-01  1.6360322696746121e-01  7.6538795419099220e-02  7.6538864534548501e-02  7.6538963826406944e-02  7.6539085052510059e-02  7.6539221751762226e-02  7.6539367497157243e-02  7.6539515146743384e-02  7.6539656914985557e-02  7.6539784825951099e-02  7.6539891230700097e-02  7.6539969221493934e-02  7.6540012856500389e-02  7.6540017148417669e-02  7.6539977804647191e-02  7.6539890767211197e-02  7.6539751684730317e-02  7.6539555510410806e-02  7.6539296461412110e-02  7.6538968557654644e-02  7.6538566706117805e-02  7.6538088502979468e-02  7.6537537101234010e-02  7.6536925200106895e-02  7.6536279647378427e-02  7.6535645810139163e-02  7.6535089452652125e-02  7.6534694464016215e-02  7.6534555989881417e-02  7.6534767518879554e-02  7.6535402511849968e-02  7.6536490275133276e-02  7.6537985693494917e-02  7.6539732757899215e-02  7.6541422170253059e-02  7.6542543019056136e-02  7.6542326180557313e-02  7.6539672460356784e-02  7.6533052285339132e-02  7.6520356944869264e-02  7.6498680483172030e-02  7.6464021876614635e-02  7.6410843021711153e-02  7.6331444191183345e-02  7.6215201785077513e-02  7.6047524010164430e-02  7.5808532761625844e-02  7.5471433386052916e-02  7.5000392389316300e-02  7.4347550140535706e-02  7.3448756645045146e-02  7.2218099335192826e-02  7.0541698299745076e-02  6.8271998285828070e-02  6.5226090346203247e-02  6.1191647605529927e-02  5.5935006289270693e-02  4.9212355687158822e-02  4.0806123916992822e-02  3.0675349057848293e-02  1.9412274241656476e-02  9.4233661028499550e-03  6.7303081466333903e-03  4.8081377712470667e-03  4.2767344752512343e-02  1.3463445216267125e-01  2.4757489283684728e-01  3.3782039536306158e-01  4.1406571446035140e-01  7.6153015706227689e-01  9.2506970527941856e-01  9.6172723968228946e-01  9.5440526682921512e-01  9.2021501788766535e-01  9.3027924498916148e-01  9.3558067044619575e-01  9.3989360996802629e-01  9.4675321154212722e-01  9.5222324708048489e-01  9.5217387117953478e-01  9.2828793214868333e-01  8.9766689767362318e-01  7.9317389745656297e-01  3.7519579788990443e-01  2.1059021519693788e-01  1.0590576299200095e-01  6.4423842983788546e-02  7.1443273868510598e-02  7.4331179739309888e-02  7.5544049200181873e-02  7.6075389214653621e-02  7.6320694566071948e-02  7.6439594756294013e-02  7.6499060779425476e-02  7.6528874998843019e-02  7.6543214419516489e-02  7.6549294193982362e-02  7.6551025637720968e-02  7.6550689389086310e-02  7.6549737931582387e-02  1.6362622611165115e-01  1.6360344501640683e-01  7.6538904982471664e-02  7.6538979963722623e-02  7.6539087790191779e-02  7.6539216542981098e-02  7.6539356311898496e-02  7.6539497867792711e-02  7.6539631749554457e-02  7.6539748140955585e-02  7.6539837276797543e-02  7.6539890048458778e-02  7.6539898572281537e-02  7.6539856567149525e-02  7.6539759448387257e-02  7.6539604110475654e-02  7.6539388476779519e-02  7.6539111016256683e-02  7.6538770477276974e-02  7.6538366107068198e-02  7.6537898529925902e-02  7.6537370857641063e-02  7.6536790256142226e-02  7.6536170604333389e-02  7.6535536360758702e-02  7.6534926911404108e-02  7.6534400091718510e-02  7.6534031543866024e-02  7.6533907701765061e-02  7.6534112821738706e-02  7.6534707056064591e-02  7.6535696679028375e-02  7.6536994620651999e-02  7.6538368954370620e-02  7.6539377392046942e-02  7.6539286345062948e-02  7.6536972553139571e-02  7.6530800524663448e-02  7.6518460081416773e-02  7.6496737413517230e-02  7.6461182388739196e-02  7.6405627333631182e-02  7.6321520552585453e-02  7.6196957124503500e-02  7.6015325230540470e-02  7.5753635101119293e-02  7.5380156723773128e-02  7.4851553398173135e-02  7.4109412360320481e-02  7.3075833721583702e-02  7.1647308603826787e-02  6.9686070853912679e-02  6.7009342536135164e-02  6.3378734509315512e-02  5.8494687372974634e-02  5.2014249541002540e-02  4.3623050469129170e-02  3.3177592031312327e-02  2.1068806553089587e-02  9.6584228661713203e-03  1.0294800733753263e-02  3.4908714888156325e-03  5.0771555149072153e-02  1.6316663410175863e-01  2.8455508883306396e-01  3.8107859529989641e-01  7.9846166773022365e-01  9.3916673016059937e-01  9.8104359362988613e-01  9.1610423220768922e-01  9.2346178584948735e-01  9.2507732099327322e-01  9.2828083044447118e-01  9.3488676036737128e-01  9.4352736580344509e-01  9.5254756868495394e-01  9.5976218591941176e-01  9.6581226373808138e-01  9.7228245856822570e-01  9.7529101308501287e-01  9.6663054321376951e-01  9.5207773805546314e-01  9.2350482572858350e-01  8.1789214313312475e-01  6.7907549811002443e-01  6.0072517127907976e-01  5.4322522506671189e-01  1.6542043040025589e-01  7.1493474605952526e-02  7.4212764352556068e-02  7.5389672240437439e-02  7.5945774266810859e-02  7.6230039973624805e-02  7.6382682601683127e-02  7.6466169744405954e-02  7.6511540982121637e-02  7.6535496510116929e-02  7.6547418982657697e-02  7.6552701801851530e-02  7.6554526877655724e-02  7.6554780894429561e-02  1.6364001414618382e-01  1.6360374189509433e-01  7.6539046768019092e-02  7.6539119845063813e-02  7.6539227866567361e-02  7.6539355712280099e-02  7.6539489486236803e-02  7.6539616573195149e-02  7.6539724853678937e-02  7.6539802428245152e-02  7.6539837943252656e-02  7.6539821243571254e-02  7.6539744067625634e-02  7.6539600560161625e-02  7.6539387451972030e-02  7.6539103862193938e-02  7.6538750848337722e-02  7.6538331008288746e-02  7.6537848438970657e-02  7.6537309342804949e-02  7.6536723332400206e-02  7.6536104087793141e-02  7.65354698787