<?xml version="1.0"?>
<VTKFile type="UnstructuredGrid"  version="0.1"  >
<UnstructuredGrid>
<Piece  NumberOfPoints="5151" NumberOfCells="10000">
<Points>
<DataArray  type="Float64"  NumberOfComponents="3"  format="ascii">0 0 0  0.02 0 0  0.04 0 0  0.06 0 0  0.08 0 0  0.1 0 0  0.12 0 0  0.14 0 0  0.16 0 0  0.18 0 0  0.2 0 0  0.22 0 0  0.24 0 0  0.26 0 0  0.28 0 0  0.3 0 0  0.32 0 0  0.34 0 0  0.36 0 0  0.38 0 0  0.4 0 0  0.42 0 0  0.44 0 0  0.46 0 0  0.48 0 0  0.5 0 0  0.52 0 0  0.54 0 0  0.5600000000000001 0 0  0.58 0 0  0.6 0 0  0.62 0 0  0.64 0 0  0.66 0 0  0.68 0 0  0.7 0 0  0.72 0 0  0.74 0 0  0.76 0 0  0.78 0 0  0.8 0 0  0.82 0 0  0.84 0 0  0.86 0 0  0.88 0 0  0.9 0 0  0.92 0 0  0.9399999999999999 0 0  0.96 0 0  0.98 0 0  1 0 0  1.02 0 0  1.04 0 0  1.06 0 0  1.08 0 0  1.1 0 0  1.12 0 0  1.14 0 0  1.16 0 0  1.18 0 0  1.2 0 0  1.22 0 0  1.24 0 0  1.26 0 0  1.28 0 0  1.3 0 0  1.32 0 0  1.34 0 0  1.36 0 0  1.38 0 0  1.4 0 0  1.42 0 0  1.44 0 0  1.46 0 0  1.48 0 0  1.5 0 0  1.52 0 0  1.54 0 0  1.56 0 0  1.58 0 0  1.6 0 0  1.62 0 0  1.64 0 0  1.66 0 0  1.68 0 0  1.7 0 0  1.72 0 0  1.74 0 0  1.76 0 0  1.78 0 0  1.8 0 0  1.82 0 0  1.84 0 0  1.86 0 0  1.88 0 0  1.9 0 0  1.92 0 0  1.94 0 0  1.96 0 0  1.98 0 0  2 0 0  0 0.02 0  0.02 0.02 0  0.04 0.02 0  0.06 0.02 0  0.08 0.02 0  0.1 0.02 0  0.12 0.02 0  0.14 0.02 0  0.16 0.02 0  0.18 0.02 0  0.2 0.02 0  0.22 0.02 0  0.24 0.02 0  0.26 0.02 0  0.28 0.02 0  0.3 0.02 0  0.32 0.02 0  0.34 0.02 0  0.36 0.02 0  0.38 0.02 0  0.4 0.02 0  0.42 0.02 0  0.44 0.02 0  0.46 0.02 0  0.48 0.02 0  0.5 0.02 0  0.52 0.02 0  0.54 0.02 0  0.5600000000000001 0.02 0  0.58 0.02 0  0.6 0.02 0  0.62 0.02 0  0.64 0.02 0  0.66 0.02 0  0.68 0.02 0  0.7 0.02 0  0.72 0.02 0  0.74 0.02 0  0.76 0.02 0  0.78 0.02 0  0.8 0.02 0  0.82 0.02 0  0.84 0.02 0  0.86 0.02 0  0.88 0.02 0  0.9 0.02 0  0.92 0.02 0  0.9399999999999999 0.02 0  0.96 0.02 0  0.98 0.02 0  1 0.02 0  1.02 0.02 0  1.04 0.02 0  1.06 0.02 0  1.08 0.02 0  1.1 0.02 0  1.12 0.02 0  1.14 0.02 0  1.16 0.02 0  1.18 0.02 0  1.2 0.02 0  1.22 0.02 0  1.24 0.02 0  1.26 0.02 0  1.28 0.02 0  1.3 0.02 0  1.32 0.02 0  1.34 0.02 0  1.36 0.02 0  1.38 0.02 0  1.4 0.02 0  1.42 0.02 0  1.44 0.02 0  1.46 0.02 0  1.48 0.02 0  1.5 0.02 0  1.52 0.02 0  1.54 0.02 0  1.56 0.02 0  1.58 0.02 0  1.6 0.02 0  1.62 0.02 0  1.64 0.02 0  1.66 0.02 0  1.68 0.02 0  1.7 0.02 0  1.72 0.02 0  1.74 0.02 0  1.76 0.02 0  1.78 0.02 0  1.8 0.02 0  1.82 0.02 0  1.84 0.02 0  1.86 0.02 0  1.88 0.02 0  1.9 0.02 0  1.92 0.02 0  1.94 0.02 0  1.96 0.02 0  1.98 0.02 0  2 0.02 0  0 0.04 0  0.02 0.04 0  0.04 0.04 0  0.06 0.04 0  0.08 0.04 0  0.1 0.04 0  0.12 0.04 0  0.14 0.04 0  0.16 0.04 0  0.18 0.04 0  0.2 0.04 0  0.22 0.04 0  0.24 0.04 0  0.26 0.04 0  0.28 0.04 0  0.3 0.04 0  0.32 0.04 0  0.34 0.04 0  0.36 0.04 0  0.38 0.04 0  0.4 0.04 0  0.42 0.04 0  0.44 0.04 0  0.46 0.04 0  0.48 0.04 0  0.5 0.04 0  0.52 0.04 0  0.54 0.04 0  0.5600000000000001 0.04 0  0.58 0.04 0  0.6 0.04 0  0.62 0.04 0  0.64 0.04 0  0.66 0.04 0  0.68 0.04 0  0.7 0.04 0  0.72 0.04 0  0.74 0.04 0  0.76 0.04 0  0.78 0.04 0  0.8 0.04 0  0.82 0.04 0  0.84 0.04 0  0.86 0.04 0  0.88 0.04 0  0.9 0.04 0  0.92 0.04 0  0.9399999999999999 0.04 0  0.96 0.04 0  0.98 0.04 0  1 0.04 0  1.02 0.04 0  1.04 0.04 0  1.06 0.04 0  1.08 0.04 0  1.1 0.04 0  1.12 0.04 0  1.14 0.04 0  1.16 0.04 0  1.18 0.04 0  1.2 0.04 0  1.22 0.04 0  1.24 0.04 0  1.26 0.04 0  1.28 0.04 0  1.3 0.04 0  1.32 0.04 0  1.34 0.04 0  1.36 0.04 0  1.38 0.04 0  1.4 0.04 0  1.42 0.04 0  1.44 0.04 0  1.46 0.04 0  1.48 0.04 0  1.5 0.04 0  1.52 0.04 0  1.54 0.04 0  1.56 0.04 0  1.58 0.04 0  1.6 0.04 0  1.62 0.04 0  1.64 0.04 0  1.66 0.04 0  1.68 0.04 0  1.7 0.04 0  1.72 0.04 0  1.74 0.04 0  1.76 0.04 0  1.78 0.04 0  1.8 0.04 0  1.82 0.04 0  1.84 0.04 0  1.86 0.04 0  1.88 0.04 0  1.9 0.04 0  1.92 0.04 0  1.94 0.04 0  1.96 0.04 0  1.98 0.04 0  2 0.04 0  0 0.06 0  0.02 0.06 0  0.04 0.06 0  0.06 0.06 0  0.08 0.06 0  0.1 0.06 0  0.12 0.06 0  0.14 0.06 0  0.16 0.06 0  0.18 0.06 0  0.2 0.06 0  0.22 0.06 0  0.24 0.06 0  0.26 0.06 0  0.28 0.06 0  0.3 0.06 0  0.32 0.06 0  0.34 0.06 0  0.36 0.06 0  0.38 0.06 0  0.4 0.06 0  0.42 0.06 0  0.44 0.06 0  0.46 0.06 0  0.48 0.06 0  0.5 0.06 0  0.52 0.06 0  0.54 0.06 0  0.5600000000000001 0.06 0  0.58 0.06 0  0.6 0.06 0  0.62 0.06 0  0.64 0.06 0  0.66 0.06 0  0.68 0.06 0  0.7 0.06 0  0.72 0.06 0  0.74 0.06 0  0.76 0.06 0  0.78 0.06 0  0.8 0.06 0  0.82 0.06 0  0.84 0.06 0  0.86 0.06 0  0.88 0.06 0  0.9 0.06 0  0.92 0.06 0  0.9399999999999999 0.06 0  0.96 0.06 0  0.98 0.06 0  1 0.06 0  1.02 0.06 0  1.04 0.06 0  1.06 0.06 0  1.08 0.06 0  1.1 0.06 0  1.12 0.06 0  1.14 0.06 0  1.16 0.06 0  1.18 0.06 0  1.2 0.06 0  1.22 0.06 0  1.24 0.06 0  1.26 0.06 0  1.28 0.06 0  1.3 0.06 0  1.32 0.06 0  1.34 0.06 0  1.36 0.06 0  1.38 0.06 0  1.4 0.06 0  1.42 0.06 0  1.44 0.06 0  1.46 0.06 0  1.48 0.06 0  1.5 0.06 0  1.52 0.06 0  1.54 0.06 0  1.56 0.06 0  1.58 0.06 0  1.6 0.06 0  1.62 0.06 0  1.64 0.06 0  1.66 0.06 0  1.68 0.06 0  1.7 0.06 0  1.72 0.06 0  1.74 0.06 0  1.76 0.06 0  1.78 0.06 0  1.8 0.06 0  1.82 0.06 0  1.84 0.06 0  1.86 0.06 0  1.88 0.06 0  1.9 0.06 0  1.92 0.06 0  1.94 0.06 0  1.96 0.06 0  1.98 0.06 0  2 0.06 0  0 0.08 0  0.02 0.08 0  0.04 0.08 0  0.06 0.08 0  0.08 0.08 0  0.1 0.08 0  0.12 0.08 0  0.14 0.08 0  0.16 0.08 0  0.18 0.08 0  0.2 0.08 0  0.22 0.08 0  0.24 0.08 0  0.26 0.08 0  0.28 0.08 0  0.3 0.08 0  0.32 0.08 0  0.34 0.08 0  0.36 0.08 0  0.38 0.08 0  0.4 0.08 0  0.42 0.08 0  0.44 0.08 0  0.46 0.08 0  0.48 0.08 0  0.5 0.08 0  0.52 0.08 0  0.54 0.08 0  0.5600000000000001 0.08 0  0.58 0.08 0  0.6 0.08 0  0.62 0.08 0  0.64 0.08 0  0.66 0.08 0  0.68 0.08 0  0.7 0.08 0  0.72 0.08 0  0.74 0.08 0  0.76 0.08 0  0.78 0.08 0  0.8 0.08 0  0.82 0.08 0  0.84 0.08 0  0.86 0.08 0  0.88 0.08 0  0.9 0.08 0  0.92 0.08 0  0.9399999999999999 0.08 0  0.96 0.08 0  0.98 0.08 0  1 0.08 0  1.02 0.08 0  1.04 0.08 0  1.06 0.08 0  1.08 0.08 0  1.1 0.08 0  1.12 0.08 0  1.14 0.08 0  1.16 0.08 0  1.18 0.08 0  1.2 0.08 0  1.22 0.08 0  1.24 0.08 0  1.26 0.08 0  1.28 0.08 0  1.3 0.08 0  1.32 0.08 0  1.34 0.08 0  1.36 0.08 0  1.38 0.08 0  1.4 0.08 0  1.42 0.08 0  1.44 0.08 0  1.46 0.08 0  1.48 0.08 0  1.5 0.08 0  1.52 0.08 0  1.54 0.08 0  1.56 0.08 0  1.58 0.08 0  1.6 0.08 0  1.62 0.08 0  1.64 0.08 0  1.66 0.08 0  1.68 0.08 0  1.7 0.08 0  1.72 0.08 0  1.74 0.08 0  1.76 0.08 0  1.78 0.08 0  1.8 0.08 0  1.82 0.08 0  1.84 0.08 0  1.86 0.08 0  1.88 0.08 0  1.9 0.08 0  1.92 0.08 0  1.94 0.08 0  1.96 0.08 0  1.98 0.08 0  2 0.08 0  0 0.1 0  0.02 0.1 0  0.04 0.1 0  0.06 0.1 0  0.08 0.1 0  0.1 0.1 0  0.12 0.1 0  0.14 0.1 0  0.16 0.1 0  0.18 0.1 0  0.2 0.1 0  0.22 0.1 0  0.24 0.1 0  0.26 0.1 0  0.28 0.1 0  0.3 0.1 0  0.32 0.1 0  0.34 0.1 0  0.36 0.1 0  0.38 0.1 0  0.4 0.1 0  0.42 0.1 0  0.44 0.1 0  0.46 0.1 0  0.48 0.1 0  0.5 0.1 0  0.52 0.1 0  0.54 0.1 0  0.5600000000000001 0.1 0  0.58 0.1 0  0.6 0.1 0  0.62 0.1 0  0.64 0.1 0  0.66 0.1 0  0.68 0.1 0  0.7 0.1 0  0.72 0.1 0  0.74 0.1 0  0.76 0.1 0  0.78 0.1 0  0.8 0.1 0  0.82 0.1 0  0.84 0.1 0  0.86 0.1 0  0.88 0.1 0  0.9 0.1 0  0.92 0.1 0  0.9399999999999999 0.1 0  0.96 0.1 0  0.98 0.1 0  1 0.1 0  1.02 0.1 0  1.04 0.1 0  1.06 0.1 0  1.08 0.1 0  1.1 0.1 0  1.12 0.1 0  1.14 0.1 0  1.16 0.1 0  1.18 0.1 0  1.2 0.1 0  1.22 0.1 0  1.24 0.1 0  1.26 0.1 0  1.28 0.1 0  1.3 0.1 0  1.32 0.1 0  1.34 0.1 0  1.36 0.1 0  1.38 0.1 0  1.4 0.1 0  1.42 0.1 0  1.44 0.1 0  1.46 0.1 0  1.48 0.1 0  1.5 0.1 0  1.52 0.1 0  1.54 0.1 0  1.56 0.1 0  1.58 0.1 0  1.6 0.1 0  1.62 0.1 0  1.64 0.1 0  1.66 0.1 0  1.68 0.1 0  1.7 0.1 0  1.72 0.1 0  1.74 0.1 0  1.76 0.1 0  1.78 0.1 0  1.8 0.1 0  1.82 0.1 0  1.84 0.1 0  1.86 0.1 0  1.88 0.1 0  1.9 0.1 0  1.92 0.1 0  1.94 0.1 0  1.96 0.1 0  1.98 0.1 0  2 0.1 0  0 0.12 0  0.02 0.12 0  0.04 0.12 0  0.06 0.12 0  0.08 0.12 0  0.1 0.12 0  0.12 0.12 0  0.14 0.12 0  0.16 0.12 0  0.18 0.12 0  0.2 0.12 0  0.22 0.12 0  0.24 0.12 0  0.26 0.12 0  0.28 0.12 0  0.3 0.12 0  0.32 0.12 0  0.34 0.12 0  0.36 0.12 0  0.38 0.12 0  0.4 0.12 0  0.42 0.12 0  0.44 0.12 0  0.46 0.12 0  0.48 0.12 0  0.5 0.12 0  0.52 0.12 0  0.54 0.12 0  0.5600000000000001 0.12 0  0.58 0.12 0  0.6 0.12 0  0.62 0.12 0  0.64 0.12 0  0.66 0.12 0  0.68 0.12 0  0.7 0.12 0  0.72 0.12 0  0.74 0.12 0  0.76 0.12 0  0.78 0.12 0  0.8 0.12 0  0.82 0.12 0  0.84 0.12 0  0.86 0.12 0  0.88 0.12 0  0.9 0.12 0  0.92 0.12 0  0.9399999999999999 0.12 0  0.96 0.12 0  0.98 0.12 0  1 0.12 0  1.02 0.12 0  1.04 0.12 0  1.06 0.12 0  1.08 0.12 0  1.1 0.12 0  1.12 0.12 0  1.14 0.12 0  1.16 0.12 0  1.18 0.12 0  1.2 0.12 0  1.22 0.12 0  1.24 0.12 0  1.26 0.12 0  1.28 0.12 0  1.3 0.12 0  1.32 0.12 0  1.34 0.12 0  1.36 0.12 0  1.38 0.12 0  1.4 0.12 0  1.42 0.12 0  1.44 0.12 0  1.46 0.12 0  1.48 0.12 0  1.5 0.12 0  1.52 0.12 0  1.54 0.12 0  1.56 0.12 0  1.58 0.12 0  1.6 0.12 0  1.62 0.12 0  1.64 0.12 0  1.66 0.12 0  1.68 0.12 0  1.7 0.12 0  1.72 0.12 0  1.74 0.12 0  1.76 0.12 0  1.78 0.12 0  1.8 0.12 0  1.82 0.12 0  1.84 0.12 0  1.86 0.12 0  1.88 0.12 0  1.9 0.12 0  1.92 0.12 0  1.94 0.12 0  1.96 0.12 0  1.98 0.12 0  2 0.12 0  0 0.14 0  0.02 0.14 0  0.04 0.14 0  0.06 0.14 0  0.08 0.14 0  0.1 0.14 0  0.12 0.14 0  0.14 0.14 0  0.16 0.14 0  0.18 0.14 0  0.2 0.14 0  0.22 0.14 0  0.24 0.14 0  0.26 0.14 0  0.28 0.14 0  0.3 0.14 0  0.32 0.14 0  0.34 0.14 0  0.36 0.14 0  0.38 0.14 0  0.4 0.14 0  0.42 0.14 0  0.44 0.14 0  0.46 0.14 0  0.48 0.14 0  0.5 0.14 0  0.52 0.14 0  0.54 0.14 0  0.5600000000000001 0.14 0  0.58 0.14 0  0.6 0.14 0  0.62 0.14 0  0.64 0.14 0  0.66 0.14 0  0.68 0.14 0  0.7 0.14 0  0.72 0.14 0  0.74 0.14 0  0.76 0.14 0  0.78 0.14 0  0.8 0.14 0  0.82 0.14 0  0.84 0.14 0  0.86 0.14 0  0.88 0.14 0  0.9 0.14 0  0.92 0.14 0  0.9399999999999999 0.14 0  0.96 0.14 0  0.98 0.14 0  1 0.14 0  1.02 0.14 0  1.04 0.14 0  1.06 0.14 0  1.08 0.14 0  1.1 0.14 0  1.12 0.14 0  1.14 0.14 0  1.16 0.14 0  1.18 0.14 0  1.2 0.14 0  1.22 0.14 0  1.24 0.14 0  1.26 0.14 0  1.28 0.14 0  1.3 0.14 0  1.32 0.14 0  1.34 0.14 0  1.36 0.14 0  1.38 0.14 0  1.4 0.14 0  1.42 0.14 0  1.44 0.14 0  1.46 0.14 0  1.48 0.14 0  1
[...]
<PointData  Scalars="sols[i]"> 
<DataArray  type="Float64"  Name="sols[i]"  format="ascii">2.5837414424493794e-02  1.7387903673912526e-02  1.7387903673634336e-02  1.7387903673117336e-02  1.7387903672251806e-02  1.7387903670898465e-02  1.7387903668902294e-02  1.7387903666108546e-02  1.7387903662375696e-02  1.7387903657584889e-02  1.7387903651646646e-02  1.7387903644506365e-02  1.7387903636150490e-02  1.7387903626613983e-02  1.7387903615989565e-02  1.7387903604438683e-02  1.7387903592203973e-02  1.7387903579621389e-02  1.7387903567130422e-02  1.7387903555280245e-02  1.7387903544727468e-02  1.7387903536222341e-02  1.7387903530580666e-02  1.7387903528640621e-02  1.7387903531212934e-02  1.7387903539050058e-02  1.7387903552893456e-02  1.7387903573724786e-02  1.7387903603461922e-02  1.7387903646536879e-02  1.7387903713105519e-02  1.7387903825091314e-02  1.7387904026849393e-02  1.7387904402806364e-02  1.7387905104601024e-02  1.7387906389226868e-02  1.7387908666264346e-02  1.7387912545496865e-02  1.7387918867332867e-02  1.7387928695261741e-02  1.7387943270422330e-02  1.7387963994611757e-02  1.7387992596377112e-02  1.7388031567624557e-02  1.7388084368068300e-02  1.7388153942800015e-02  1.7388238772738415e-02  1.7388329158346077e-02  1.7388408086979348e-02  1.7388458761442616e-02  1.7388477162912235e-02  1.7388474084536497e-02  1.7388459360593220e-02  1.7388434068496224e-02  1.7388395241445732e-02  1.7388341798115940e-02  1.7388276780808676e-02  1.7388205745374353e-02  1.7388135376540853e-02  1.7388071945719126e-02  1.7388019623638847e-02  1.7387979782199976e-02  1.7387951493390848e-02  1.7387932579048197e-02  1.7387920563872498e-02  1.7387913255279296e-02  1.7387908968712663e-02  1.7387906529232933e-02  1.7387905174006922e-02  1.7387904434660970e-02  1.7387904036241110e-02  1.7387903823132198e-02  1.7387903709808191e-02  1.7387903650281495e-02  1.7387903620134773e-02  1.7387903606403222e-02  1.7387903602085298e-02  1.7387903603259935e-02  1.7387903607614129e-02  1.7387903613705954e-02  1.7387903620597795e-02  1.7387903627669680e-02  1.7387903634517081e-02  1.7387903640890000e-02  1.7387903646649772e-02  1.7387903651737095e-02  1.7387903656147161e-02  1.7387903659910078e-02  1.7387903663076031e-02  1.7387903665704516e-02  1.7387903667857037e-02  1.7387903669592693e-02  1.7387903670966067e-02  1.7387903672027048e-02  1.7387903672821191e-02  1.7387903673392168e-02  1.7387903673782339e-02  1.7387903674032548e-02  1.7387903674179819e-02  1.7387903674251984e-02  5.0194852801192028e-02  1.7387903673918570e-02  8.7746526942607487e-03  8.7746526941251367e-03  8.7746526938777547e-03  8.7746526934779773e-03  8.7746526928732908e-03  8.7746526920037763e-03  8.7746526908080366e-03  8.7746526892286680e-03  8.7746526872166646e-03  8.7746526847348426e-03  8.7746526817606401e-03  8.7746526782889449e-03  8.7746526743353159e-03  8.7746526699397139e-03  8.7746526651707023e-03  8.7746526601300470e-03  8.7746526549570131e-03  8.7746526498314742e-03  8.7746526449751002e-03  8.7746526406489479e-03  8.7746526371462307e-03  8.7746526347798875e-03  8.7746526338661427e-03  8.7746526347103372e-03  8.7746526376119380e-03  8.7746526429254724e-03  8.7746526512532449e-03  8.7746526639159040e-03  8.7746526839681434e-03  8.7746527182278877e-03  8.7746527810936732e-03  8.7746529013494994e-03  8.7746531336393742e-03  8.7746535766105166e-03  8.7746543993380242e-03  8.7746558755736823e-03  8.7746584203817340e-03  8.7746626156246475e-03  8.7746692038507042e-03  8.7746790392346456e-03  8.7746930366237458e-03  8.7747122664162819e-03  8.7747383849995555e-03  8.7747741388860788e-03  8.7748225579960051e-03  8.7748836251503558e-03  8.7749506151026738e-03  8.7750100687992716e-03  8.7750473871873388e-03  8.7750590037132085e-03  8.7750555951901631e-03  8.7750456830642289e-03  8.7750290739093129e-03  8.7750024776993944e-03  8.7749646602181090e-03  8.7749180625940077e-03  8.7748668421360840e-03  8.7748159989178079e-03  8.7747703159143462e-03  8.7747329327963770e-03  8.7747047817469479e-03  8.7746850460872477e-03  8.7746720238079494e-03  8.7746638593172218e-03  8.7746589562469127e-03  8.7746561166741014e-03  8.7746545213954370e-03  8.7746536473451327e-03  8.7746531778980456e-03  8.7746529294554128e-03  8.7746527992578101e-03  8.7746527314531524e-03  8.7746526963942695e-03  8.7746526786113051e-03  8.7746526700980005e-03  8.7746526666905023e-03  8.7746526661731279e-03  8.7746526673146141e-03  8.7746526693895151e-03  8.7746526719445078e-03  8.7746526746844290e-03  8.7746526774146721e-03  8.7746526800100838e-03  8.7746526823955055e-03  8.7746526845318244e-03  8.7746526864056259e-03  8.7746526880208321e-03  8.7746526893922039e-03  8.7746526905404451e-03  8.7746526914887178e-03  8.7746526922603731e-03  8.7746526928776571e-03  8.7746526933612599e-03  8.7746526937301644e-03  8.7746526940022350e-03  8.7746526941946019e-03  8.7746526943234780e-03  8.7746526944037714e-03  8.7746526944471291e-03  1.7387903674254725e-02  1.7387903673660748e-02  8.7746526941344001e-03  8.7746526939794685e-03  8.7746526937166267e-03  8.7746526933235244e-03  8.7746526927734332e-03  8.7746526920371125e-03  8.7746526910845776e-03  8.7746526898874206e-03  8.7746526884214891e-03  8.7746526866696126e-03  8.7746526846240978e-03  8.7746526822891340e-03  8.7746526796831890e-03  8.7746526768412835e-03  8.7746526738170707e-03  8.7746526706845955e-03  8.7746526675390926e-03  8.7746526644961291e-03  8.7746526616887116e-03  8.7746526592613616e-03  8.7746526573611611e-03  8.7746526561276877e-03  8.7746526556869899e-03  8.7746526561634352e-03  8.7746526577404810e-03  8.7746526608343343e-03  8.7746526665091421e-03  8.7746526773822865e-03  8.7746526994843047e-03  8.7746527459134672e-03  8.7746528437394559e-03  8.7746530465417621e-03  8.7746534561987388e-03  8.7746542587510898e-03  8.7746557793059888e-03  8.7746585576356159e-03  8.7746634352556651e-03  8.7746716222008147e-03  8.7746846814398781e-03  8.7747043646994437e-03  8.7747323516051603e-03  8.7747703224300179e-03  8.7748212826353963e-03  8.7748920365235388e-03  8.7749922386709950e-03  8.7751245857085099e-03  8.7752733082321795e-03  8.7754034565730166e-03  8.7754743221803606e-03  8.7754807444059921e-03  8.7754640411263438e-03  8.7754455219613264e-03  8.7754155361341301e-03  8.7753614054124941e-03  8.7752802075655358e-03  8.7751800542280045e-03  8.7750708031365272e-03  8.7749638464066481e-03  8.7748701274132940e-03  8.7747960593620080e-03  8.7747424926703701e-03  8.7747065008959013e-03  8.7746837329553753e-03  8.7746700252096643e-03  8.7746621026246873e-03  8.7746576771454317e-03  8.7746552752581645e-03  8.7746540032633338e-03  8.7746533436520533e-03  8.7746530076646002e-03  8.7746528390476742e-03  8.7746527554317735e-03  8.7746527143747824e-03  8.7746526944410333e-03  8.7746526849854980e-03  8.7746526807849362e-03  8.7746526792845808e-03  8.7746526792191661e-03  8.7746526799386583e-03  8.7746526810867868e-03  8.7746526824516672e-03  8.7746526838975800e-03  8.7746526853342346e-03  8.7746526867019392e-03  8.7746526879631786e-03  8.7746526890972818e-03  8.7746526900960558e-03  8.7746526909601337e-03  8.7746526916959999e-03  8.7746526923136049e-03  8.7746526928246197e-03  8.7746526932412274e-03  8.7746526935754080e-03  8.7746526938383036e-03  8.7746526940402376e-03  8.7746526941906294e-03  8.7746526942978076e-03  8.7746526943693910e-03  8.7746526944114354e-03  1.7387903674195251e-02  1.7387903673193469e-02  8.7746526939104716e-03  8.7746526937415303e-03  8.7746526934696974e-03  8.7746526930859541e-03  8.7746526925832919e-03  8.7746526919571018e-03  8.7746526912034200e-03  8.7746526903183103e-03  8.7746526892987127e-03  8.7746526881442542e-03  8.7746526868591624e-03  8.7746526854541144e-03  8.7746526839477569e-03  8.7746526823676181e-03  8.7746526807502296e-03  8.7746526791403611e-03  8.7746526775887273e-03  8.7746526761477601e-03  8.7746526748653658e-03  8.7746526737766534e-03  8.7746526728951016e-03  8.7746526722081667e-03  8.7746526716884505e-03  8.7746526713459606e-03  8.7746526713761274e-03  8.7746526725156048e-03  8.7746526768321051e-03  8.7746526893948216e-03  8.7746527216858994e-03  8.7746527983704001e-03  8.7746529703630304e-03  8.7746533393012003e-03  8.7746541017687269e-03  8.7746556256293497e-03  8.7746585737926396e-03  8.7746640871695491e-03  8.7746740164024329e-03  8.7746911318094117e-03  8.7747191302108320e-03  8.7747621510504432e-03  8.7748236925270090e-03  8.7749059861337089e-03  8.7750136302798803e-03  8.7751639617598028e-03  8.7753885225970371e-03  8.7757002513268231e-03  8.7760542913311659e-03  8.7763552390204072e-03  8.7764857593292459e-03  8.7764441945164893e-03  8.7763983069657960e-03  8.7763948503145704e-03  8.7763606673043216e-03  8.7762481766038587e-03  8.7760570767775273e-03  8.7758203165583040e-03  8.7755627771409443e-03  8.7753130081427988e-03  8.7750995451132598e-03  8.7749369215479531e-03  8.7748242070333406e-03  8.7747517415660732e-03  8.7747078399795161e-03  8.7746824706781065e-03  8.7746683579082701e-03  8.7746607480483681e-03  8.7746567505316269e-03  8.7746546974679894e-03  8.7746536641349019e-03  8.7746531537382603e-03  8.7746529061738694e-03  8.7746527882292171e-03  8.7746527330257382e-03  8.7746527076271747e-03  8.7746526961316514e-03  8.7746526910246446e-03  8.7746526888371895e-03  8.7746526880051381e-03  8.7746526878348767e-03  8.7746526880162299e-03  8.7746526884009551e-03  8.7746526889067589e-03  8.7746526894790511e-03  8.7746526900771508e-03  8.7746526906697809e-03  8.7746526912339928e-03  8.7746526917543664e-03  8.7746526922220149e-03  8.7746526926333335e-03  8.7746526929886690e-03  8.7746526932910591e-03  8.7746526935451406e-03  8.7746526937562633e-03  8.7746526939295362e-03  8.7746526940693861e-03  8.7746526941791560e-03  8.7746526942608909e-03  8.7746526943165148e-03  8.7746526943494295e-03  1.7387903674078817e-02  1.7387903672437241e-02  8.7746526935622467e-03  8.7746526934030199e-03  8.7746526931421435e-03  8.7746526927788143e-03  8.7746526923200216e-03  8.7746526917784149e-03  8.7746526911679241e-03  8.7746526905012803e-03  8.7746526897896238e-03  8.7746526890435401e-03  8.7746526882743741e-03  8.7746526874954833e-03  8.7746526867229224e-03  8.7746526859751924e-03  8.7746526852717915e-03  8.7746526846304521e-03  8.7746526840625279e-03  8.7746526835662843e-03  8.7746526831185695e-03  8.7746526826657303e-03  8.7746526821173045e-03  8.7746526813515038e-03  8.7746526802519962e-03  8.7746526788190313e-03  8.7746526774466673e-03  8.7746526775563730e-03  8.7746526829789624e-03  8.7746527028787751e-03  8.7746527578012566e-03  8.7746528919313421e-03  8.7746531974320589e-03  8.7746538616394511e-03  8.7746552559494345e-03  8.7746580969783744e-03  8.7746637238521816e-03  8.7746745398517116e-03  8.7746946321443486e-03  8.7747304446816523e-03  8.7747910377554139e-03  8.7748869052664460e-03  8.7750261029849175e-03  8.7752091413970477e-03  8.7754363809872567e-03  8.7757466264298950e-03  8.7762341063146298e-03  8.7769271288063947e-03  8.7776480913190277e-03  1.3109483900689767e-02  1.7402276028306643e-02  1.7401228533864006e-02  1.7400888147750329e-02  1.3109599813779238e-02  8.7784251442385008e-03  8.7782854315401216e-03  8.7778518113818867e-03  8.7772899496245324e-03  8.7766721060806019e-03  8.7760757384224598e-03  8.7755808622140587e-03  8.7752199138788015e-03  8.7749815429967112e-03  8.7748354807517352e-03  8.7747509168021199e-03  8.7747040440103157e-03  8.7746789317103818e-03  8.7746658381177775e-03  8.7746591619817880e-03  8.7746558226812436e-03  8.7746541813209823e-03  8.7746533881444769e-03  8.7746530115669664e-03  8.7746528361917521e-03  8.7746527562269621e-03  8.7746527205525022e-03  8.7746527049203191e-03  8.7746526980925672e-03  8.7746526950187448e-03  8.7746526935211077e-03  8.7746526927099493e-03  8.7746526922432132e-03  8.7746526919930748e-03  8.7746526919045310e-03  8.7746526919420757e-03  8.7746526920735902e-03  8.7746526922681083e-03  8.7746526924979175e-03  8.7746526927404197e-03  8.7746526929789442e-03  8.7746526932025466e-03  8.7746526934051623e-03  8.7746526935844529e-03  8.7746526937406040e-03  8.7746526938751960e-03  8.7746526939899185e-03  8.7746526940857775e-03  8.7746526941622997e-03  8.7746526942171429e-03  8.7746526942480817e-03  8.7746526942593453e-03  1.7387903673895450e-02  1.7387903671306021e-02  8.7746526930605074e-03  8.7746526929581726e-03  8.7746526927460124e-03  8.7746526924269760e-03  8.7746526920208616e-03  8.7746526915542401e-03  8.7746526910537151e-03  8.7746526905428425e-03  8.7746526900413999e-03  8.7746526895660770e-03  8.7746526891313726e-03  8.7746526887502695e-03  8.7746526884342011e-03  8.7746526881917961e-03  8.7746526880261681e-03  8.7746526879306213e-03  8.7746526878823179e-03  8.7746526878339105e-03  8.7746526877041844e-03  8.7746526873697366e-03  8.7746526866637996e-03  8.7746526853966604e-03  8.7746526834289757e-03  8.7746526808666261e-03  8.7746526785248014e-03  8.7746526789737427e-03  8.7746526888238252e-03  8.7746527236188896e-03  8.7746528181508986e-03  8.7746530478898885e-03  8.7746535728206784e-03  8.7746547254884486e-03  8.7746571838207294e-03  8.7746623002537272e-03  8.7746727029507435e-03  8.7746933290877120e-03  8.7747330353142774e-03  8.7748066841198315e-03  8.7749367365966176e-03  8.7751512875068206e-03  8.7754722091581468e-03  8.7758885158570697e-03  8.7763566302470897e-03  8.7769226202824620e-03  8.7778132803944340e-03  1.3111483519769750e-02  1.7409504529571563e-02  2.5888095554833054e-02  5.0864035303063271e-01  5.0760767185565592e-01  5.0753057916711497e-01  5.0957042998378410e-01  2.5899331887848622e-02  1.3118927920656555e-02  8.7818261087630346e-03  8.7806098798674497e-03  8.7791356926973426e-03  8.7776996256223976e-03  8.7765527822160506e-03  8.7757610719026140e-03  8.7752673366797117e-03  8.7749807039684078e-03  8.7748226604263280e-03  8.7747387605281429e-03  8.7746954736210303e-03  8.7746736272188413e-03  8.7746627946524141e-03  8.7746575030478533e-03  8.7746549532422748e-03  8.7746537412650375e-03  8.7746531736260409e-03  8.7746529121321918e-03  8.7746527938113352e-03  8.7746527411327862e-03  8.7746527178022265e-03  8.7746527072037912e-03  8.7746527019713690e-03  8.7746526989871815e-03  8.7746526970131026e-03  8.7746526955931360e-03  8.7746526945646844e-03  8.7746526938558382e-03  8.7746526934126545e-03  8.7746526931804514e-03  8.7746526931042138e-03  8.7746526931337179e-03  8.7746526932273201e-03  8.7746526933534554e-03  8.7746526934902435e-03  8.7746526936239942e-03  8.7746526937472740e-03  8.7746526938569467e-03  8.7746526939523738e-03  8.7746526940335624e-03  8.7746526940998010e-03  8.7746526941483143e-03  8.7746526941733100e-03  8.7746526941687268e-03  8.7746526941421526e-03  1.7387903673639619e-02  1.7387903669729261e-02  8.7746526923806935e-03  8.7746526924058262e-03  8.7746526922989135e-03  8.7746526920615131e-03  8.7746526917288608e-03  8.7746526913419914e-03  8.7746526909380750e-03  8.7746526905479721e-03  8.7746526901962517e-03  8.7746526899021102e-03  8.7746526896801732e-03  8.7746526895407448e-03  8.7746526894891420e-03  8.7746526895236335e-03  8.7746526896316998e-03  8.7746526897845862e-03  8.7746526899297392e-03  8.7746526899814652e-03  8.7746526898115108e-03  8.7746526892430957e-03  8.7746526880577227e-03  8.7746526860366034e-03  8.7746526830840693e-03  8.7746526795378886e-03  8.7746526768952057e-03  8.7746526794477645e-03  8.7746526978887979e-03  8.7746527571592649e-03  8.7746529133303809e-03  8.7746532895575814e-03  8.7746541517906614e-03  8.7746560660662033e-03  8.7746602197781749e-03  8.7746690633476541e-03  8.7746875530634160e-03  8.7747254536752663e-03  8.7748013179281461e-03  8.7749485652343275e-03  8.7752224632063665e-03  8.7757009752936314e-03  8.7764560785695573e-03  8.7774390741985914e-03  8.7783799589165427e-03  8.7790899199360600e-03  1.3113779707902761e-02  2.5899011620891931e-02  5.1082007502977644e-01  5.0895497863386263e-01  5.0795481251749797e-01  5.0639224044970599e-01  5.0582276285139838e-01  5.0736760711963358e-01  5.1421103458723294e-01  5.2188920246745985e-01  1.7445199973692527e-02  8.7878755232068170e-03  8.7845549934106315e-03  8.7810788021118191e-03  8.7784411443544673e-03  8.7767452381395782e-03  8.7757573980761366e-03  8.7752174917848959e-03  8.7749348277548003e-03  8.7747912168287708e-03  8.7747198074605692e-03  8.7746848606951190e-03  8.7746679678108695e-03  8.7746598853940243e-03  8.7746560547847900e-03  8.7746542568057587e-03  8.7746534217390607e-03  8.7746530381532309e-03  8.7746528635071763e-03  8.7746527839175949e-03  8.7746527466741747e-03  8.7746527279118722e-03  8.7746527171795822e-03  8.7746527101111391e-03  8.7746527049830571e-03  8.7746527011372168e-03  8.7746526982934100e-03  8.7746526962771618e-03  8.7746526949322411e-03  8.7746526941060009e-03  8.7746526936568828e-03  8.7746526934640301e-03  8.7746526934320852e-03  8.7746526934911473e-03  8.7746526935935411e-03  8.7746526937092367e-03  8.7746526938210726e-03  8.7746526939205417e-03  8.7746526940042854e-03  8.7746526940709491e-03  8.7746526941188101e-03  8.7746526941434085e-03  8.7746526941356682e-03  8.7746526940851999e-03  8.7746526940043375e-03  1.7387903673319254e-02  1.7387903667673951e-02  8.7746526915108702e-03  8.7746526917509213e-03  8.7746526918200968e-03  8.7746526917117911e-03  8.7746526914814684e-03  8.7746526911876756e-03  8.7746526908783398e-03  8.7746526905900027e-03  8.7746526903496203e-03  8.7746526901764203e-03  8.7746526900829222e-03  8.7746526900750414e-03  8.7746526901509286e-03  8.7746526902982742e-03  8.7746526904898120e-03  8.7746526906769800e-03  8.7746526907815994e-03  8.7746526906861844e-03  8.7746526902253638e-03  8.7746526891838341e-03  8.7746526873143330e-03  8.7746526844067821e-03  8.7746526804775658e-03  8.7746526762326957e-03  8.7746526741452977e-03  8.7746526808963297e-03  8.7746527128222864e-03  8.7746528079596497e-03  8.7746530524774706e-03  8.7746536382832963e-03  8.7746549876101029e-03  8.7746580200200562e-03  8.7746647181152614e-03  8.7746793084163156e-03  8.7747106772245731e-03  8.7747771738486153e-03  8.7749157558154236e-03  8.7751981855130057e-03  8.7757558836697221e-03  8.7768047821623132e-03  8.7786076151089801e-03  8.7810450290960445e-03  8.7829090651688098e-03  1.3120713395138376e-02  2.5897142042739719e-02  5.1021356782951910e-01  5.1061364506486917e-01  5.0000000339099637e-01  5.0000000339523953e-01  5.0000000341319117e-01  5.0000000341401307e-01  5.0000000338941086e-01  5.0000000336370143e-01  5.1514307768967993e-01  5.3122278277045842e-01  1.7494595589494108e-02  8.7961031847546747e-03  8.7878507596349138e-03  8.7819083603426686e-03  8.7784168252380713e-03  8.7765382856947946e-03  8.7755761749005248e-03  8.7750982206660708e-03  8.7748654279176681e-03  8.7747535281815035e-03  8.7747002273825588e-03  8.7746750086569146e-03  8.7746631428088431e-03  8.7746575894503392e-03  8.7746550050446983e-03  8.7746538090139430e-03  8.7746532571995363e-03  8.7746530010227707e-03  8.7746528785658078e-03  8.7746528157196836e-03  8.7746527793989802e-03  8.7746527553840322e-03  8.7746527378549880e-03  8.7746527245137311e-03  8.7746527143894408e-03  8.7746527069242821e-03  8.7746527016488614e-03  8.7746526981078207e-03  8.7746526958719772e-03  8.7746526945654910e-03  8.7746526938834168e-03  8.7746526935948508e-03  8.7746526935356828e-03  8.7746526935962004e-03  8.7746526937076182e-03  8.7746526938299180e-03  8.7746526939419742e-03  8.7746526940340238e-03  8.7746526941017283e-03  8.7746526941417935e-03  8.7746526941479466e-03  8.7746526941075795e-03  8.7746526940052690e-03  8.7746526938583466e-03  1.7387903672959715e-02  1.7387903665159000e-02  8.7746526904577370e-03  8.7746526910059876e-03  8.7746526913278465e-03  8.7746526914001706e-03  8.7746526913040305e-03  8.7746526911196485e-03  8.7746526909071847e-03  8.7746526907085537e-03  8.7746526905518527e-03  8.7746526904547689e-03  8.7746526904262465e-03  8.7746526904666240e-03  8.7746526905662561e-03  8.7746526907023382e-03  8.7746526908338909e-03  8.7746526908948734e-03  8.7746526907855043e-03  8.7746526903627695e-03  8.7746526894336308e-03  8.7746526877584517e-03  8.77465268508