<?xml version="1.0"?>
<VTKFile type="UnstructuredGrid"  version="0.1"  >
<UnstructuredGrid>
<Piece  NumberOfPoints="5151" NumberOfCells="10000">
<Points>
<DataArray  type="Float64"  NumberOfComponents="3"  format="ascii">0 0 0  0.02 0 0  0.04 0 0  0.06 0 0  0.08 0 0  0.1 0 0  0.12 0 0  0.14 0 0  0.16 0 0  0.18 0 0  0.2 0 0  0.22 0 0  0.24 0 0  0.26 0 0  0.28 0 0  0.3 0 0  0.32 0 0  0.34 0 0  0.36 0 0  0.38 0 0  0.4 0 0  0.42 0 0  0.44 0 0  0.46 0 0  0.48 0 0  0.5 0 0  0.52 0 0  0.54 0 0  0.5600000000000001 0 0  0.58 0 0  0.6 0 0  0.62 0 0  0.64 0 0  0.66 0 0  0.68 0 0  0.7 0 0  0.72 0 0  0.74 0 0  0.76 0 0  0.78 0 0  0.8 0 0  0.82 0 0  0.84 0 0  0.86 0 0  0.88 0 0  0.9 0 0  0.92 0 0  0.9399999999999999 0 0  0.96 0 0  0.98 0 0  1 0 0  1.02 0 0  1.04 0 0  1.06 0 0  1.08 0 0  1.1 0 0  1.12 0 0  1.14 0 0  1.16 0 0  1.18 0 0  1.2 0 0  1.22 0 0  1.24 0 0  1.26 0 0  1.28 0 0  1.3 0 0  1.32 0 0  1.34 0 0  1.36 0 0  1.38 0 0  1.4 0 0  1.42 0 0  1.44 0 0  1.46 0 0  1.48 0 0  1.5 0 0  1.52 0 0  1.54 0 0  1.56 0 0  1.58 0 0  1.6 0 0  1.62 0 0  1.64 0 0  1.66 0 0  1.68 0 0  1.7 0 0  1.72 0 0  1.74 0 0  1.76 0 0  1.78 0 0  1.8 0 0  1.82 0 0  1.84 0 0  1.86 0 0  1.88 0 0  1.9 0 0  1.92 0 0  1.94 0 0  1.96 0 0  1.98 0 0  2 0 0  0 0.02 0  0.02 0.02 0  0.04 0.02 0  0.06 0.02 0  0.08 0.02 0  0.1 0.02 0  0.12 0.02 0  0.14 0.02 0  0.16 0.02 0  0.18 0.02 0  0.2 0.02 0  0.22 0.02 0  0.24 0.02 0  0.26 0.02 0  0.28 0.02 0  0.3 0.02 0  0.32 0.02 0  0.34 0.02 0  0.36 0.02 0  0.38 0.02 0  0.4 0.02 0  0.42 0.02 0  0.44 0.02 0  0.46 0.02 0  0.48 0.02 0  0.5 0.02 0  0.52 0.02 0  0.54 0.02 0  0.5600000000000001 0.02 0  0.58 0.02 0  0.6 0.02 0  0.62 0.02 0  0.64 0.02 0  0.66 0.02 0  0.68 0.02 0  0.7 0.02 0  0.72 0.02 0  0.74 0.02 0  0.76 0.02 0  0.78 0.02 0  0.8 0.02 0  0.82 0.02 0  0.84 0.02 0  0.86 0.02 0  0.88 0.02 0  0.9 0.02 0  0.92 0.02 0  0.9399999999999999 0.02 0  0.96 0.02 0  0.98 0.02 0  1 0.02 0  1.02 0.02 0  1.04 0.02 0  1.06 0.02 0  1.08 0.02 0  1.1 0.02 0  1.12 0.02 0  1.14 0.02 0  1.16 0.02 0  1.18 0.02 0  1.2 0.02 0  1.22 0.02 0  1.24 0.02 0  1.26 0.02 0  1.28 0.02 0  1.3 0.02 0  1.32 0.02 0  1.34 0.02 0  1.36 0.02 0  1.38 0.02 0  1.4 0.02 0  1.42 0.02 0  1.44 0.02 0  1.46 0.02 0  1.48 0.02 0  1.5 0.02 0  1.52 0.02 0  1.54 0.02 0  1.56 0.02 0  1.58 0.02 0  1.6 0.02 0  1.62 0.02 0  1.64 0.02 0  1.66 0.02 0  1.68 0.02 0  1.7 0.02 0  1.72 0.02 0  1.74 0.02 0  1.76 0.02 0  1.78 0.02 0  1.8 0.02 0  1.82 0.02 0  1.84 0.02 0  1.86 0.02 0  1.88 0.02 0  1.9 0.02 0  1.92 0.02 0  1.94 0.02 0  1.96 0.02 0  1.98 0.02 0  2 0.02 0  0 0.04 0  0.02 0.04 0  0.04 0.04 0  0.06 0.04 0  0.08 0.04 0  0.1 0.04 0  0.12 0.04 0  0.14 0.04 0  0.16 0.04 0  0.18 0.04 0  0.2 0.04 0  0.22 0.04 0  0.24 0.04 0  0.26 0.04 0  0.28 0.04 0  0.3 0.04 0  0.32 0.04 0  0.34 0.04 0  0.36 0.04 0  0.38 0.04 0  0.4 0.04 0  0.42 0.04 0  0.44 0.04 0  0.46 0.04 0  0.48 0.04 0  0.5 0.04 0  0.52 0.04 0  0.54 0.04 0  0.5600000000000001 0.04 0  0.58 0.04 0  0.6 0.04 0  0.62 0.04 0  0.64 0.04 0  0.66 0.04 0  0.68 0.04 0  0.7 0.04 0  0.72 0.04 0  0.74 0.04 0  0.76 0.04 0  0.78 0.04 0  0.8 0.04 0  0.82 0.04 0  0.84 0.04 0  0.86 0.04 0  0.88 0.04 0  0.9 0.04 0  0.92 0.04 0  0.9399999999999999 0.04 0  0.96 0.04 0  0.98 0.04 0  1 0.04 0  1.02 0.04 0  1.04 0.04 0  1.06 0.04 0  1.08 0.04 0  1.1 0.04 0  1.12 0.04 0  1.14 0.04 0  1.16 0.04 0  1.18 0.04 0  1.2 0.04 0  1.22 0.04 0  1.24 0.04 0  1.26 0.04 0  1.28 0.04 0  1.3 0.04 0  1.32 0.04 0  1.34 0.04 0  1.36 0.04 0  1.38 0.04 0  1.4 0.04 0  1.42 0.04 0  1.44 0.04 0  1.46 0.04 0  1.48 0.04 0  1.5 0.04 0  1.52 0.04 0  1.54 0.04 0  1.56 0.04 0  1.58 0.04 0  1.6 0.04 0  1.62 0.04 0  1.64 0.04 0  1.66 0.04 0  1.68 0.04 0  1.7 0.04 0  1.72 0.04 0  1.74 0.04 0  1.76 0.04 0  1.78 0.04 0  1.8 0.04 0  1.82 0.04 0  1.84 0.04 0  1.86 0.04 0  1.88 0.04 0  1.9 0.04 0  1.92 0.04 0  1.94 0.04 0  1.96 0.04 0  1.98 0.04 0  2 0.04 0  0 0.06 0  0.02 0.06 0  0.04 0.06 0  0.06 0.06 0  0.08 0.06 0  0.1 0.06 0  0.12 0.06 0  0.14 0.06 0  0.16 0.06 0  0.18 0.06 0  0.2 0.06 0  0.22 0.06 0  0.24 0.06 0  0.26 0.06 0  0.28 0.06 0  0.3 0.06 0  0.32 0.06 0  0.34 0.06 0  0.36 0.06 0  0.38 0.06 0  0.4 0.06 0  0.42 0.06 0  0.44 0.06 0  0.46 0.06 0  0.48 0.06 0  0.5 0.06 0  0.52 0.06 0  0.54 0.06 0  0.5600000000000001 0.06 0  0.58 0.06 0  0.6 0.06 0  0.62 0.06 0  0.64 0.06 0  0.66 0.06 0  0.68 0.06 0  0.7 0.06 0  0.72 0.06 0  0.74 0.06 0  0.76 0.06 0  0.78 0.06 0  0.8 0.06 0  0.82 0.06 0  0.84 0.06 0  0.86 0.06 0  0.88 0.06 0  0.9 0.06 0  0.92 0.06 0  0.9399999999999999 0.06 0  0.96 0.06 0  0.98 0.06 0  1 0.06 0  1.02 0.06 0  1.04 0.06 0  1.06 0.06 0  1.08 0.06 0  1.1 0.06 0  1.12 0.06 0  1.14 0.06 0  1.16 0.06 0  1.18 0.06 0  1.2 0.06 0  1.22 0.06 0  1.24 0.06 0  1.26 0.06 0  1.28 0.06 0  1.3 0.06 0  1.32 0.06 0  1.34 0.06 0  1.36 0.06 0  1.38 0.06 0  1.4 0.06 0  1.42 0.06 0  1.44 0.06 0  1.46 0.06 0  1.48 0.06 0  1.5 0.06 0  1.52 0.06 0  1.54 0.06 0  1.56 0.06 0  1.58 0.06 0  1.6 0.06 0  1.62 0.06 0  1.64 0.06 0  1.66 0.06 0  1.68 0.06 0  1.7 0.06 0  1.72 0.06 0  1.74 0.06 0  1.76 0.06 0  1.78 0.06 0  1.8 0.06 0  1.82 0.06 0  1.84 0.06 0  1.86 0.06 0  1.88 0.06 0  1.9 0.06 0  1.92 0.06 0  1.94 0.06 0  1.96 0.06 0  1.98 0.06 0  2 0.06 0  0 0.08 0  0.02 0.08 0  0.04 0.08 0  0.06 0.08 0  0.08 0.08 0  0.1 0.08 0  0.12 0.08 0  0.14 0.08 0  0.16 0.08 0  0.18 0.08 0  0.2 0.08 0  0.22 0.08 0  0.24 0.08 0  0.26 0.08 0  0.28 0.08 0  0.3 0.08 0  0.32 0.08 0  0.34 0.08 0  0.36 0.08 0  0.38 0.08 0  0.4 0.08 0  0.42 0.08 0  0.44 0.08 0  0.46 0.08 0  0.48 0.08 0  0.5 0.08 0  0.52 0.08 0  0.54 0.08 0  0.5600000000000001 0.08 0  0.58 0.08 0  0.6 0.08 0  0.62 0.08 0  0.64 0.08 0  0.66 0.08 0  0.68 0.08 0  0.7 0.08 0  0.72 0.08 0  0.74 0.08 0  0.76 0.08 0  0.78 0.08 0  0.8 0.08 0  0.82 0.08 0  0.84 0.08 0  0.86 0.08 0  0.88 0.08 0  0.9 0.08 0  0.92 0.08 0  0.9399999999999999 0.08 0  0.96 0.08 0  0.98 0.08 0  1 0.08 0  1.02 0.08 0  1.04 0.08 0  1.06 0.08 0  1.08 0.08 0  1.1 0.08 0  1.12 0.08 0  1.14 0.08 0  1.16 0.08 0  1.18 0.08 0  1.2 0.08 0  1.22 0.08 0  1.24 0.08 0  1.26 0.08 0  1.28 0.08 0  1.3 0.08 0  1.32 0.08 0  1.34 0.08 0  1.36 0.08 0  1.38 0.08 0  1.4 0.08 0  1.42 0.08 0  1.44 0.08 0  1.46 0.08 0  1.48 0.08 0  1.5 0.08 0  1.52 0.08 0  1.54 0.08 0  1.56 0.08 0  1.58 0.08 0  1.6 0.08 0  1.62 0.08 0  1.64 0.08 0  1.66 0.08 0  1.68 0.08 0  1.7 0.08 0  1.72 0.08 0  1.74 0.08 0  1.76 0.08 0  1.78 0.08 0  1.8 0.08 0  1.82 0.08 0  1.84 0.08 0  1.86 0.08 0  1.88 0.08 0  1.9 0.08 0  1.92 0.08 0  1.94 0.08 0  1.96 0.08 0  1.98 0.08 0  2 0.08 0  0 0.1 0  0.02 0.1 0  0.04 0.1 0  0.06 0.1 0  0.08 0.1 0  0.1 0.1 0  0.12 0.1 0  0.14 0.1 0  0.16 0.1 0  0.18 0.1 0  0.2 0.1 0  0.22 0.1 0  0.24 0.1 0  0.26 0.1 0  0.28 0.1 0  0.3 0.1 0  0.32 0.1 0  0.34 0.1 0  0.36 0.1 0  0.38 0.1 0  0.4 0.1 0  0.42 0.1 0  0.44 0.1 0  0.46 0.1 0  0.48 0.1 0  0.5 0.1 0  0.52 0.1 0  0.54 0.1 0  0.5600000000000001 0.1 0  0.58 0.1 0  0.6 0.1 0  0.62 0.1 0  0.64 0.1 0  0.66 0.1 0  0.68 0.1 0  0.7 0.1 0  0.72 0.1 0  0.74 0.1 0  0.76 0.1 0  0.78 0.1 0  0.8 0.1 0  0.82 0.1 0  0.84 0.1 0  0.86 0.1 0  0.88 0.1 0  0.9 0.1 0  0.92 0.1 0  0.9399999999999999 0.1 0  0.96 0.1 0  0.98 0.1 0  1 0.1 0  1.02 0.1 0  1.04 0.1 0  1.06 0.1 0  1.08 0.1 0  1.1 0.1 0  1.12 0.1 0  1.14 0.1 0  1.16 0.1 0  1.18 0.1 0  1.2 0.1 0  1.22 0.1 0  1.24 0.1 0  1.26 0.1 0  1.28 0.1 0  1.3 0.1 0  1.32 0.1 0  1.34 0.1 0  1.36 0.1 0  1.38 0.1 0  1.4 0.1 0  1.42 0.1 0  1.44 0.1 0  1.46 0.1 0  1.48 0.1 0  1.5 0.1 0  1.52 0.1 0  1.54 0.1 0  1.56 0.1 0  1.58 0.1 0  1.6 0.1 0  1.62 0.1 0  1.64 0.1 0  1.66 0.1 0  1.68 0.1 0  1.7 0.1 0  1.72 0.1 0  1.74 0.1 0  1.76 0.1 0  1.78 0.1 0  1.8 0.1 0  1.82 0.1 0  1.84 0.1 0  1.86 0.1 0  1.88 0.1 0  1.9 0.1 0  1.92 0.1 0  1.94 0.1 0  1.96 0.1 0  1.98 0.1 0  2 0.1 0  0 0.12 0  0.02 0.12 0  0.04 0.12 0  0.06 0.12 0  0.08 0.12 0  0.1 0.12 0  0.12 0.12 0  0.14 0.12 0  0.16 0.12 0  0.18 0.12 0  0.2 0.12 0  0.22 0.12 0  0.24 0.12 0  0.26 0.12 0  0.28 0.12 0  0.3 0.12 0  0.32 0.12 0  0.34 0.12 0  0.36 0.12 0  0.38 0.12 0  0.4 0.12 0  0.42 0.12 0  0.44 0.12 0  0.46 0.12 0  0.48 0.12 0  0.5 0.12 0  0.52 0.12 0  0.54 0.12 0  0.5600000000000001 0.12 0  0.58 0.12 0  0.6 0.12 0  0.62 0.12 0  0.64 0.12 0  0.66 0.12 0  0.68 0.12 0  0.7 0.12 0  0.72 0.12 0  0.74 0.12 0  0.76 0.12 0  0.78 0.12 0  0.8 0.12 0  0.82 0.12 0  0.84 0.12 0  0.86 0.12 0  0.88 0.12 0  0.9 0.12 0  0.92 0.12 0  0.9399999999999999 0.12 0  0.96 0.12 0  0.98 0.12 0  1 0.12 0  1.02 0.12 0  1.04 0.12 0  1.06 0.12 0  1.08 0.12 0  1.1 0.12 0  1.12 0.12 0  1.14 0.12 0  1.16 0.12 0  1.18 0.12 0  1.2 0.12 0  1.22 0.12 0  1.24 0.12 0  1.26 0.12 0  1.28 0.12 0  1.3 0.12 0  1.32 0.12 0  1.34 0.12 0  1.36 0.12 0  1.38 0.12 0  1.4 0.12 0  1.42 0.12 0  1.44 0.12 0  1.46 0.12 0  1.48 0.12 0  1.5 0.12 0  1.52 0.12 0  1.54 0.12 0  1.56 0.12 0  1.58 0.12 0  1.6 0.12 0  1.62 0.12 0  1.64 0.12 0  1.66 0.12 0  1.68 0.12 0  1.7 0.12 0  1.72 0.12 0  1.74 0.12 0  1.76 0.12 0  1.78 0.12 0  1.8 0.12 0  1.82 0.12 0  1.84 0.12 0  1.86 0.12 0  1.88 0.12 0  1.9 0.12 0  1.92 0.12 0  1.94 0.12 0  1.96 0.12 0  1.98 0.12 0  2 0.12 0  0 0.14 0  0.02 0.14 0  0.04 0.14 0  0.06 0.14 0  0.08 0.14 0  0.1 0.14 0  0.12 0.14 0  0.14 0.14 0  0.16 0.14 0  0.18 0.14 0  0.2 0.14 0  0.22 0.14 0  0.24 0.14 0  0.26 0.14 0  0.28 0.14 0  0.3 0.14 0  0.32 0.14 0  0.34 0.14 0  0.36 0.14 0  0.38 0.14 0  0.4 0.14 0  0.42 0.14 0  0.44 0.14 0  0.46 0.14 0  0.48 0.14 0  0.5 0.14 0  0.52 0.14 0  0.54 0.14 0  0.5600000000000001 0.14 0  0.58 0.14 0  0.6 0.14 0  0.62 0.14 0  0.64 0.14 0  0.66 0.14 0  0.68 0.14 0  0.7 0.14 0  0.72 0.14 0  0.74 0.14 0  0.76 0.14 0  0.78 0.14 0  0.8 0.14 0  0.82 0.14 0  0.84 0.14 0  0.86 0.14 0  0.88 0.14 0  0.9 0.14 0  0.92 0.14 0  0.9399999999999999 0.14 0  0.96 0.14 0  0.98 0.14 0  1 0.14 0  1.02 0.14 0  1.04 0.14 0  1.06 0.14 0  1.08 0.14 0  1.1 0.14 0  1.12 0.14 0  1.14 0.14 0  1.16 0.14 0  1.18 0.14 0  1.2 0.14 0  1.22 0.14 0  1.24 0.14 0  1.26 0.14 0  1.28 0.14 0  1.3 0.14 0  1.32 0.14 0  1.34 0.14 0  1.36 0.14 0  1.38 0.14 0  1.4 0.14 0  1.42 0.14 0  1.44 0.14 0  1.46 0.14 0  1.48 0.14 0  1
[...]
<PointData  Scalars="sols[i]"> 
<DataArray  type="Float64"  Name="sols[i]"  format="ascii">3.7781656115125384e-01  3.4300362099271836e-01  3.4300362545998164e-01  3.4300363384006222e-01  3.4300364806369099e-01  3.4300367091312012e-01  3.4300370605804154e-01  3.4300375796219662e-01  3.4300383173059235e-01  3.4300393294539167e-01  3.4300406751758350e-01  3.4300424155656112e-01  3.4300446125413142e-01  3.4300473276842286e-01  3.4300506208097348e-01  3.4300545478735339e-01  3.4300591576784578e-01  3.4300644867019087e-01  3.4300705514347007e-01  3.4300773378135196e-01  3.4300847879721352e-01  3.4300927835765715e-01  3.4301011226781092e-01  3.4301095128711712e-01  3.4301175566611553e-01  3.4301247395106438e-01  3.4301304369219282e-01  3.4301339307974621e-01  3.4301344385766563e-01  3.4301311550751851e-01  3.4301233048531182e-01  3.4301102013763268e-01  3.4300913079469281e-01  3.4300662944662813e-01  3.4300350836206750e-01  3.4299978810598808e-01  3.4299551937534190e-01  3.4299078625211638e-01  3.4298570053859112e-01  3.4298038691633814e-01  3.4297498098413609e-01  3.4296962303095158e-01  3.4296444632623824e-01  3.4295956376310544e-01  3.4295505764589351e-01  3.4295097299156430e-01  3.4294731612245305e-01  3.4294406046856274e-01  3.4294115850427104e-01  3.4293855317348693e-01  3.4293617999414416e-01  3.4293395794579284e-01  3.4293177549596349e-01  3.4292949072639040e-01  3.4292696399191319e-01  3.4292412483153567e-01  3.4292103364833548e-01  3.4291787137543867e-01  3.4291487401952064e-01  3.4291231750744450e-01  3.4291068525983870e-01  3.4291091238229271e-01  3.4291445319480118e-01  3.4292336087722852e-01  3.4294043035145055e-01  3.4296895210621592e-01  3.4301226327178141e-01  3.4307370820585115e-01  3.4315690115068270e-01  3.4326563636546692e-01  3.4340355012399415e-01  3.4357376271169721e-01  3.4377806705932656e-01  3.4401471181898879e-01  3.4427479310517023e-01  3.4453743701877659e-01  3.4476443871755230e-01  3.4489896314141777e-01  3.4487873350574860e-01  3.4466972407228380e-01  3.4430194823568511e-01  3.4386869407895698e-01  3.4347540357077239e-01  3.4318532480671715e-01  3.4300634813736952e-01  3.4291438326637125e-01  3.4287909891557472e-01  3.4287607356790006e-01  3.4288896297007926e-01  3.4290797671942080e-01  3.4292779062177109e-01  3.4294583046453125e-01  3.4296107865375863e-01  3.4297333220943671e-01  3.4298278159261864e-01  3.4298978599454849e-01  3.4299475691869541e-01  3.4299809505412004e-01  3.4300014914978078e-01  3.4300118116250183e-01  4.3230274742988117e-01  3.4300362092557668e-01  2.9864654486881659e-01  2.9864654865235729e-01  2.9864655585252320e-01  2.9864656792818606e-01  2.9864658699711460e-01  2.9864661597657505e-01  2.9864665864871170e-01  2.9864671965837514e-01  2.9864680446507696e-01  2.9864691925704206e-01  2.9864707082481412e-01  2.9864726638786754e-01  2.9864751336352424e-01  2.9864781906288057e-01  2.9864819029028494e-01  2.9864863281551018e-01  2.9864915068643449e-01  2.9864974535723710e-01  2.9865041462856440e-01  2.9865115142885779e-01  2.9865194249412769e-01  2.9865276691009479e-01  2.9865359513605183e-01  2.9865438859958005e-01  2.9865509908181037e-01  2.9865566924631753e-01  2.9865603376659577e-01  2.9865612110674877e-01  2.9865585591108729e-01  2.9865516192984803e-01  2.9865396540424838e-01  2.9865219880276489e-01  2.9864980470956487e-01  2.9864673951769483e-01  2.9864297643111071e-01  2.9863850732196917e-01  2.9863334401990838e-01  2.9862751926856967e-01  2.9862107991534742e-01  2.9861407687162755e-01  2.9860655810158543e-01  2.9859856672328539e-01  2.9859012960958914e-01  2.9858124716778955e-01  2.9857188224977210e-01  2.9856194604866043e-01  2.9855128008320830e-01  2.9853963267275219e-01  2.9852662880887454e-01  2.9851173623768773e-01  2.9849423718405454e-01  2.9847321243005109e-01  2.9844754062343204e-01  2.9841590266058254e-01  2.9837677030202892e-01  2.9832837649611565e-01  2.9826868419467117e-01  2.9819539890938063e-01  2.9810607349413487e-01  2.9799836597953294e-01  2.9787036624672153e-01  2.9772085812909199e-01  2.9754962921157391e-01  2.9735775114713303e-01  2.9714773793341087e-01  2.9692381447608096e-01  2.9669185060947206e-01  2.9645844958633927e-01  2.9623001365908891e-01  2.9601265557956413e-01  2.9581138700667353e-01  2.9562728100839525e-01  2.9545427065065166e-01  2.9528066128155550e-01  2.9509778168947703e-01  2.9491071442625738e-01  2.9474366271118208e-01  2.9463631082502845e-01  2.9463698058579080e-01  2.9480207712292517e-01  2.9518127124810173e-01  2.9575634684998553e-01  2.9641791370992143e-01  2.9703672200808456e-01  2.9753494362228161e-01  2.9789809489470209e-01  2.9814812544090241e-01  2.9831627055343191e-01  2.9842913862877202e-01  2.9850537148453182e-01  2.9855697850578572e-01  2.9859160441159999e-01  2.9861430970706626e-01  2.9862864943074385e-01  2.9863724193931029e-01  2.9864204963238011e-01  2.9864452040360367e-01  2.9864566754611743e-01  2.9864612949005909e-01  3.4300120378994531e-01  3.4300362516419924e-01  2.9864654827284953e-01  2.9864655376239296e-01  2.9864656373277348e-01  2.9864657961709312e-01  2.9864660333073484e-01  2.9864663731515911e-01  2.9864668456618959e-01  2.9864674860973650e-01  2.9864683343314447e-01  2.9864694338535969e-01  2.9864708304898713e-01  2.9864725707617895e-01  2.9864746997153158e-01  2.9864772579956106e-01  2.9864802779451544e-01  2.9864837785664167e-01  2.9864877593280509e-01  2.9864921930039245e-01  2.9864970179734379e-01  2.9865021306204953e-01  2.9865073786157675e-01  2.9865125559100136e-01  2.9865174012119966e-01  2.9865216002041689e-01  2.9865247875063267e-01  2.9865265539597802e-01  2.9865264529822882e-01  2.9865240070390975e-01  2.9865187142703764e-01  2.9865100566830421e-01  2.9864975122756704e-01  2.9864805728959087e-01  2.9864587672951398e-01  2.9864316855914452e-01  2.9863989988483786e-01  2.9863604677277034e-01  2.9863159411878465e-01  2.9862653544178186e-01  2.9862086655841102e-01  2.9861457196180730e-01  2.9860761898061317e-01  2.9859994988089239e-01  2.9859147161679117e-01  2.9858204094689750e-01  2.9857144481758069e-01  2.9855937451585429e-01  2.9854539303488087e-01  2.9852889272129984e-01  2.9850904044537008e-01  2.9848471406610383e-01  2.9845444468394788e-01  2.9841637154393297e-01  2.9836821857148627e-01  2.9830728538417867e-01  2.9823042966134733e-01  2.9813404004491728e-01  2.9801401698979657e-01  2.9786583955006268e-01  2.9768482017413700e-01  2.9746666900944813e-01  2.9720806554085849e-01  2.9690713152745990e-01  2.9656424635122119e-01  2.9618256862368314e-01  2.9576852630343431e-01  2.9533335802937816e-01  2.9489301937446438e-01  2.9446470643919836e-01  2.9406499911982886e-01  2.9371303214645911e-01  2.9343090503256919e-01  2.9323603667831338e-01  2.9313110805562803e-01  2.9310767806404903e-01  2.9316515544712629e-01  2.9331191371796306e-01  2.9350841159339452e-01  2.9359546449222851e-01  2.9342721719824472e-01  2.9318753330829661e-01  2.9334103954823443e-01  2.9410812744357551e-01  2.9522878865934915e-01  2.9631168701549443e-01  2.9714371618283097e-01  2.9770371289079633e-01  2.9805533471168405e-01  2.9827097615708037e-01  2.9840451590454953e-01  2.9848957190533126e-01  2.9854539209168834e-01  2.9858270835069306e-01  2.9860766586395437e-01  2.9862404076790616e-01  2.9863437122328312e-01  2.9864050300815653e-01  2.9864384471263244e-01  2.9864547202235042e-01  2.9864614065304723e-01  3.4300027690282442e-01  3.4300363296484121e-01  2.9864655443532345e-01  2.9864656246712956e-01  2.9864657617907070e-01  2.9864659691538981e-01  2.9864662645808293e-01  2.9864666689804065e-01  2.9864672056066788e-01  2.9864678992735122e-01  2.9864687753566949e-01  2.9864698586794303e-01  2.9864711723290371e-01  2.9864727362996651e-01  2.9864745657138198e-01  2.9864766683136479e-01  2.9864790409715042e-01  2.9864816651596982e-01  2.9864845016211022e-01  2.9864874848185902e-01  2.9864905180464985e-01  2.9864934702116536e-01  2.9864961753254360e-01  2.9864984355986951e-01  2.9865000284348209e-01  2.9865007160636781e-01  2.9865002541265540e-01  2.9864983993488153e-01  2.9864949100025318e-01  2.9864895381800249e-01  2.9864820157095739e-01  2.9864720380710480e-01  2.9864592527543499e-01  2.9864432572254518e-01  2.9864236068570993e-01  2.9863998271787084e-01  2.9863714211737930e-01  2.9863378629034082e-01  2.9862985747231574e-01  2.9862528908759356e-01  2.9861999558429803e-01  2.9861384802816171e-01  2.9860666832597643e-01  2.9859821818585280e-01  2.9858817266025184e-01  2.9857609497854898e-01  2.9856139720706870e-01  2.9854328707234412e-01  2.9852070243378387e-01  2.9849222690054594e-01  2.9845597950903818e-01  2.9840948380394716e-01  2.9834954167909727e-01  2.9827211751490584e-01  2.9817226188955409e-01  2.9804408398934612e-01  2.9788075177569651e-01  2.9767450141984769e-01  2.9741666120590637e-01  2.9709787321181874e-01  2.9670885861093610e-01  2.9624207875887465e-01  2.9569310195515219e-01  2.9506203438068879e-01  2.9435656211303368e-01  2.9359331334132033e-01  2.9280024226265344e-01  2.9202487977507796e-01  2.9133601755631222e-01  2.9081440979652223e-01  2.9055900168958160e-01  2.9072609695467433e-01  2.9156136158720064e-01  2.9334200226950413e-01  2.9614459622148498e-01  2.9959290724722976e-01  3.0298152069850343e-01  3.0575557437673345e-01  3.0755155469446094e-01  3.0822499117910107e-01  3.0774826887183915e-01  3.0470514942230731e-01  2.9812958190775951e-01  2.9291498013592776e-01  2.9318446637745038e-01  2.9489680277010472e-01  2.9636978317735335e-01  2.9732283907970192e-01  2.9787496785112461e-01  2.9818377620195158e-01  2.9835875626261266e-01  2.9846236798871706e-01  2.9852720319698767e-01  2.9856971152225892e-01  2.9859830208615123e-01  2.9861753894848114e-01  2.9863016610601156e-01  2.9863805159282536e-01  2.9864261895782507e-01  2.9864501618760875e-01  2.9864609957060961e-01  3.4299848524053139e-01  3.4300364583363890e-01  2.9864656401405099e-01  2.9864657504131276e-01  2.9864659290775303e-01  2.9864661877117865e-01  2.9864665432204351e-01  2.9864670143363914e-01  2.9864676193854522e-01  2.9864683746467297e-01  2.9864692929395664e-01  2.9864703824350503e-01  2.9864716457107349e-01  2.9864730789051169e-01  2.9864746706400158e-01  2.9864764003013772e-01  2.9864782353620978e-01  2.9864801277200076e-01  2.9864820094408701e-01  2.9864837887370704e-01  2.9864853473652941e-01  2.9864865406782010e-01  2.9864872016216565e-01  2.9864871496824391e-01  2.9864862044327611e-01  2.9864842009597103e-01  2.9864810030902333e-01  2.9864765086460754e-01  2.9864706410359110e-01  2.9864633245161065e-01  2.9864544463097070e-01  2.9864438145784328e-01  2.9864311236679780e-01  2.9864159349538416e-01  2.9863976723853763e-01  2.9863756219817333e-01  2.9863489202647586e-01  2.9863165176937051e-01  2.9862771065719590e-01  2.9862290026243687e-01  2.9861699318070895e-01  2.9860966585333665e-01  2.9860047136374557e-01  2.9858881977085694e-01  2.9857392949849848e-01  2.9855476689731814e-01  2.9852996079322119e-01  2.9849769010120863e-01  2.9845555012042962e-01  2.9840038240716055e-01  2.9832804990702649e-01  2.9823316651514725e-01  2.9810883051013004e-01  2.9794635712612877e-01  2.9773510333177544e-01  2.9746247530093117e-01  2.9711414488137328e-01  2.9667434002521426e-01  2.9612625289827094e-01  2.9545316527372367e-01  2.9464165489262312e-01  2.9368830006494084e-01  2.9260571841196753e-01  2.9143213776791876e-01  2.9025174174723861e-01  2.8921795442576465e-01  2.8861772756170079e-01  2.8902259804291192e-01  2.9122496675432519e-01  2.9509475693829745e-01  2.9886608940282089e-01  3.0191338136826135e-01  3.0581205963599323e-01  3.0690150139702455e-01  3.0671640513777354e-01  3.2101954613812456e-01  3.4118315654097620e-01  3.6604563647975324e-01  3.8772074537905776e-01  3.9536594295092553e-01  3.8434318633747905e-01  3.5036967504817801e-01  3.1079674692147674e-01  3.0561262064136652e-01  2.9400191337824588e-01  2.9296731828945799e-01  2.9519428910164919e-01  2.9675784767471952e-01  2.9761607940453183e-01  2.9806080290147252e-01  2.9829479750334154e-01  2.9842508663374334e-01  2.9850316718936065e-01  2.9855318519307994e-01  2.9858666633787900e-01  2.9860944062365086e-01  2.9862475964479529e-01  2.9863469240787938e-01  2.9864076136593792e-01  2.9864420646529211e-01  2.9864595333846317e-01  3.4299574915675674e-01  3.4300366572471447e-01  2.9864657764689090e-01  2.9864659141087557e-01  2.9864661309532170e-01  2.9864664358714249e-01  2.9864668444650427e-01  2.9864673736222630e-01  2.9864680376867803e-01  2.9864688457308636e-01  2.9864697995923584e-01  2.9864708926161754e-01  2.9864721090736895e-01  2.9864734240623392e-01  2.9864748034710403e-01  2.9864762034817988e-01  2.9864775691876677e-01  2.9864788322500563e-01  2.9864799079938520e-01  2.9864806928378201e-01  2.9864810633068528e-01  2.9864808778472757e-01  2.9864799831218541e-01  2.9864782262363820e-01  2.9864754724173087e-01  2.9864716240345707e-01  2.9864666349836588e-01  2.9864605106905828e-01  2.9864532855330905e-01  2.9864449752738292e-01  2.9864355092834494e-01  2.9864246583292359e-01  2.9864119756403146e-01  2.9863967616976883e-01  2.9863780458756495e-01  2.9863545630958427e-01  2.9863247010484573e-01  2.9862863960919733e-01  2.9862369537247824e-01  2.9861727606631056e-01  2.9860888295232918e-01  2.9859781308839062e-01  2.9858309515202264e-01  2.9856343155694415e-01  2.9853710388404919e-01  2.9850183866373653e-01  2.9845461615005187e-01  2.9839143192032513e-01  2.9830702739981702e-01  2.9819455614112778e-01  2.9804513815058115e-01  2.9784732154204441e-01  2.9758656966952907e-01  2.9724476200522032e-01  2.9680000354553376e-01  2.9622721233440302e-01  2.9549991183711544e-01  2.9459264540624336e-01  2.9348495657148876e-01  2.9217041204477406e-01  2.9067804818925191e-01  2.8911779820925937e-01  2.8776248020341516e-01  2.8728754524228928e-01  2.8914021184580185e-01  2.9357707132024469e-01  2.9665009979977069e-01  2.9953272223525540e-01  3.0434982319520809e-01  3.0063589203491259e-01  3.1268874439461652e-01  3.3286925890305363e-01  3.6192029504027262e-01  3.9276964015377608e-01  4.2496653428309439e-01  4.9025133410529442e-01  7.0978832193250785e-01  7.4719416487125778e-01  7.7628061726347286e-01  7.8889929048848506e-01  7.5205817437435640e-01  7.4394385938732599e-01  4.2228906818701478e-01  3.3339507810620028e-01  3.0558941914096605e-01  2.9251976964770154e-01  2.9383692277618284e-01  2.9610999808356120e-01  2.9733107665095104e-01  2.9792453830390631e-01  2.9822056109240885e-01  2.9837990592905284e-01  2.9847363149678591e-01  2.9853306012883535e-01  2.9857266418385642e-01  2.9859967799795983e-01  2.9861808571472698e-01  2.9863034209099903e-01  2.9863817583537755e-01  2.9864295676676350e-01  2.9864564980084463e-01  3.4299207963163370e-01  3.4300369483649207e-01  2.9864659576751351e-01  2.9864661095723333e-01  2.9864663508680267e-01  2.9864666875822055e-01  2.9864671327523279e-01  2.9864677005244156e-01  2.9864684010536047e-01  2.9864692365648754e-01  2.9864701986882342e-01  2.9864712670799726e-01  2.9864724092894385e-01  2.9864735816280263e-01  2.9864747305468248e-01  2.9864757938641323e-01  2.9864767012704496e-01  2.9864773738950290e-01  2.9864777231711220e-01  2.9864776497054846e-01  2.9864770431000331e-01  2.9864757835489802e-01  2.9864737476840952e-01  2.9864708212323626e-01  2.9864669179835029e-01  2.9864619995101377e-01  2.9864560864685336e-01  2.9864492473249038e-01  2.9864415528726312e-01  2.9864329942984680e-01  2.9864233723728539e-01  2.9864121846246255e-01  2.9863985359255829e-01  2.9863810820398867e-01  2.9863579831057319e-01  2.9863268232101009e-01  2.9862844585758164e-01  2.9862267639555701e-01  2.9861482317066279e-01  2.9860413486506737e-01  2.9858956451878454e-01  2.9856963762401034e-01  2.9854231190632508e-01  2.9850483825562335e-01  2.9845355802090112e-01  2.9838360917631712e-01  2.9828850706356208e-01  2.9815964994346933e-01  2.9798580300633093e-01  2.9775250313849277e-01  2.9744126660428294e-01  2.9702866210580864e-01  2.9648561008695046e-01  2.9577714541716343e-01  2.9486388130687757e-01  2.9370738627739473e-01  2.9228305449265846e-01  2.9060142291301277e-01  2.8875222255179306e-01  2.8702488726166336e-01  2.8630777250647277e-01  2.8871975155090790e-01  2.9315118849071997e-01  2.9593173742690004e-01  3.0014342310798658e-01  2.9757343869961300e-01  3.0224080813611875e-01  3.2139436045564829e-01  3.5252807797845992e-01  3.9101996662149030e-01  6.2138164051484623e-01  7.3008284483384334e-01  7.6449736792081524e-01  7.7801962748350562e-01  7.8084427341643914e-01  8.0297513791159503e-01  8.2298659931867368e-01  8.4281137503344061e-01  8.6111907810990940e-01  8.7143072949938183e-01  8.6792992773990341e-01  8.4375293940782159e-01  7.8363253143813316e-01  6.6472143263691841e-01  4.2710299864944851e-01  3.6114094099088290e-01  3.2023715554858639e-01  2.9564574868024340e-01  2.9712801602684052e-01  2.9780896963741071e-01  2.9814233841991616e-01  2.9832535370886049e-01  2.9843619107509484e-01  2.9850767206992646e-01  2.9855541600866226e-01  2.9858785970522689e-01  2.9860998466411642e-01  2.9862492394768902e-01  2.9863480873221743e-01  2.9864122973577273e-01  2.9864517620265713e-01  3.4298769793097311e-01  3.4300373520455590e-01  2.9864661823297184e-01  2.9864663224827259e-01  2.9864665614299446e-01  2.9864669033685881e-01  2.9864673567999961e-01  2.9864679311109044e-01  2.9864686309303184e-01  2.9864694509838319e-01  2.9864703725911512e-01  2.9864713620893135e-01  2.9864723711871854e-01  2.9864733390073789e-01  2.9864741952761625e-01  2.9864748638771693e-01  2.9864752660191535e-01  2.9864753225471707e-01  2.9864749552356151e-01  2.9864740872403617e-01  2.9864726426881849e-01  2.9864705451428353e-01  2.9864677193166755e-01  2.9864641007024684e-01  2.9864596524628528e-01  2.9864543809842226e-01  2.9864483366344086e-01  2.9864415802216793e-01  2.9864340975072801e-01  2.9864256604454803e-01  2.9864156469145064e-01  2.9864028649480440e-01  2.9863854159160458e-01  2.9863605977085728e-01  2.9863247864707965e-01  2.9862732105241158e-01  2.9861995645351019e-01  2.9860954307950804e-01  2.9859494303542472e-01  2.9857459481860332e-01  2.9854631974263290e-01  2.9850705079082279e-01  2.9845253319737014e-01  2.9837702070634631e-01  2.9827284317530417e-01  2.9812977681610103e-01  2.9793415188974998e-01  2.9766789726972998e-01  2.9730770175446786e-01  2.9682425272064150e-01  2.9618139594475079e-01  2.9533572432315414e-01  2.9423803961667072e-01  2.9283938245030045e-01  2.9110980913814027e-01  2.8908670328340319e-01  2.8699682782693736e-01  2.8561932507230908e-01  2.8721442294789135e-01  2.9168201140440853e-01  2.9403947048943552e-01  2.9844175127969974e-01  2.9523289117098905e-01  2.9633619926344890e-01  3.1732950470913140e-01  3.5384736514780468e-01  6.3506952429205243e-01  7.3540870444110351e-01  7.7547956579945043e-01  7.6717868878538331e-01  7.9069466797853560e-01  8.1007693457703966e-01  8.2928064288135417e-01  8.4904847600339550e-01  8.6854108557038567e-01  8.8724007940676297e-01  9.0504427548743505e-01  9.2162519834174073e-01  9.3418207435222544e-01  9.3898990260595527e-01  9.3391531200752209e-01  9.1499164273428890e-01  8.5084602543596066e-01  7.0180198050840392e-01  5.9435769307337327e-01  5.4640853293523206e-01  5.1840945488709089e-01  3.4357744243993266e-01  2.9711463892540013e-01  2.9772246741307190e-01  2.9804413372815752e-01  2.9824590535125595e-01  2.9838084227648454e-01  2.9847164752751487e-01  2.9853238475426913e-01  2.9857292397114282e-01  2.9860006279769608e-01  2.9861830346367607e-01  2.9863061534645952e-01  2.9863902671040077e-01  2.9864457743309258e-01  3.4298314601688018e-01  3.4300378815448146e-01  2.9864664375156519e-01  2.9864665259999579e-01  2.9864667208057050e-01  2.9864670266305920e-01  2.9864674448877110e-01  2.9864679772348268e-01  2.9864686204431756e-01  2.9864693601463482e-01  2.9864701664089255e-01  2.9864709918640903e-01  2.9864717725517981e-01  2.9864724312943397e-01  2.9864728831127840e-01  2.9864730418456870e-01  2.9864728270539670e-01  2.9864721703447950e-01  2.9864710202006689e-01  2.9864693444889617e-01  2.9864671283001964e-01  2.9864643644974931e-01  2.98646104612