<?xml version="1.0"?>
<VTKFile type="UnstructuredGrid"  version="0.1"  >
<UnstructuredGrid>
<Piece  NumberOfPoints="5151" NumberOfCells="10000">
<Points>
<DataArray  type="Float64"  NumberOfComponents="3"  format="ascii">0 0 0  0.02 0 0  0.04 0 0  0.06 0 0  0.08 0 0  0.1 0 0  0.12 0 0  0.14 0 0  0.16 0 0  0.18 0 0  0.2 0 0  0.22 0 0  0.24 0 0  0.26 0 0  0.28 0 0  0.3 0 0  0.32 0 0  0.34 0 0  0.36 0 0  0.38 0 0  0.4 0 0  0.42 0 0  0.44 0 0  0.46 0 0  0.48 0 0  0.5 0 0  0.52 0 0  0.54 0 0  0.5600000000000001 0 0  0.58 0 0  0.6 0 0  0.62 0 0  0.64 0 0  0.66 0 0  0.68 0 0  0.7 0 0  0.72 0 0  0.74 0 0  0.76 0 0  0.78 0 0  0.8 0 0  0.82 0 0  0.84 0 0  0.86 0 0  0.88 0 0  0.9 0 0  0.92 0 0  0.9399999999999999 0 0  0.96 0 0  0.98 0 0  1 0 0  1.02 0 0  1.04 0 0  1.06 0 0  1.08 0 0  1.1 0 0  1.12 0 0  1.14 0 0  1.16 0 0  1.18 0 0  1.2 0 0  1.22 0 0  1.24 0 0  1.26 0 0  1.28 0 0  1.3 0 0  1.32 0 0  1.34 0 0  1.36 0 0  1.38 0 0  1.4 0 0  1.42 0 0  1.44 0 0  1.46 0 0  1.48 0 0  1.5 0 0  1.52 0 0  1.54 0 0  1.56 0 0  1.58 0 0  1.6 0 0  1.62 0 0  1.64 0 0  1.66 0 0  1.68 0 0  1.7 0 0  1.72 0 0  1.74 0 0  1.76 0 0  1.78 0 0  1.8 0 0  1.82 0 0  1.84 0 0  1.86 0 0  1.88 0 0  1.9 0 0  1.92 0 0  1.94 0 0  1.96 0 0  1.98 0 0  2 0 0  0 0.02 0  0.02 0.02 0  0.04 0.02 0  0.06 0.02 0  0.08 0.02 0  0.1 0.02 0  0.12 0.02 0  0.14 0.02 0  0.16 0.02 0  0.18 0.02 0  0.2 0.02 0  0.22 0.02 0  0.24 0.02 0  0.26 0.02 0  0.28 0.02 0  0.3 0.02 0  0.32 0.02 0  0.34 0.02 0  0.36 0.02 0  0.38 0.02 0  0.4 0.02 0  0.42 0.02 0  0.44 0.02 0  0.46 0.02 0  0.48 0.02 0  0.5 0.02 0  0.52 0.02 0  0.54 0.02 0  0.5600000000000001 0.02 0  0.58 0.02 0  0.6 0.02 0  0.62 0.02 0  0.64 0.02 0  0.66 0.02 0  0.68 0.02 0  0.7 0.02 0  0.72 0.02 0  0.74 0.02 0  0.76 0.02 0  0.78 0.02 0  0.8 0.02 0  0.82 0.02 0  0.84 0.02 0  0.86 0.02 0  0.88 0.02 0  0.9 0.02 0  0.92 0.02 0  0.9399999999999999 0.02 0  0.96 0.02 0  0.98 0.02 0  1 0.02 0  1.02 0.02 0  1.04 0.02 0  1.06 0.02 0  1.08 0.02 0  1.1 0.02 0  1.12 0.02 0  1.14 0.02 0  1.16 0.02 0  1.18 0.02 0  1.2 0.02 0  1.22 0.02 0  1.24 0.02 0  1.26 0.02 0  1.28 0.02 0  1.3 0.02 0  1.32 0.02 0  1.34 0.02 0  1.36 0.02 0  1.38 0.02 0  1.4 0.02 0  1.42 0.02 0  1.44 0.02 0  1.46 0.02 0  1.48 0.02 0  1.5 0.02 0  1.52 0.02 0  1.54 0.02 0  1.56 0.02 0  1.58 0.02 0  1.6 0.02 0  1.62 0.02 0  1.64 0.02 0  1.66 0.02 0  1.68 0.02 0  1.7 0.02 0  1.72 0.02 0  1.74 0.02 0  1.76 0.02 0  1.78 0.02 0  1.8 0.02 0  1.82 0.02 0  1.84 0.02 0  1.86 0.02 0  1.88 0.02 0  1.9 0.02 0  1.92 0.02 0  1.94 0.02 0  1.96 0.02 0  1.98 0.02 0  2 0.02 0  0 0.04 0  0.02 0.04 0  0.04 0.04 0  0.06 0.04 0  0.08 0.04 0  0.1 0.04 0  0.12 0.04 0  0.14 0.04 0  0.16 0.04 0  0.18 0.04 0  0.2 0.04 0  0.22 0.04 0  0.24 0.04 0  0.26 0.04 0  0.28 0.04 0  0.3 0.04 0  0.32 0.04 0  0.34 0.04 0  0.36 0.04 0  0.38 0.04 0  0.4 0.04 0  0.42 0.04 0  0.44 0.04 0  0.46 0.04 0  0.48 0.04 0  0.5 0.04 0  0.52 0.04 0  0.54 0.04 0  0.5600000000000001 0.04 0  0.58 0.04 0  0.6 0.04 0  0.62 0.04 0  0.64 0.04 0  0.66 0.04 0  0.68 0.04 0  0.7 0.04 0  0.72 0.04 0  0.74 0.04 0  0.76 0.04 0  0.78 0.04 0  0.8 0.04 0  0.82 0.04 0  0.84 0.04 0  0.86 0.04 0  0.88 0.04 0  0.9 0.04 0  0.92 0.04 0  0.9399999999999999 0.04 0  0.96 0.04 0  0.98 0.04 0  1 0.04 0  1.02 0.04 0  1.04 0.04 0  1.06 0.04 0  1.08 0.04 0  1.1 0.04 0  1.12 0.04 0  1.14 0.04 0  1.16 0.04 0  1.18 0.04 0  1.2 0.04 0  1.22 0.04 0  1.24 0.04 0  1.26 0.04 0  1.28 0.04 0  1.3 0.04 0  1.32 0.04 0  1.34 0.04 0  1.36 0.04 0  1.38 0.04 0  1.4 0.04 0  1.42 0.04 0  1.44 0.04 0  1.46 0.04 0  1.48 0.04 0  1.5 0.04 0  1.52 0.04 0  1.54 0.04 0  1.56 0.04 0  1.58 0.04 0  1.6 0.04 0  1.62 0.04 0  1.64 0.04 0  1.66 0.04 0  1.68 0.04 0  1.7 0.04 0  1.72 0.04 0  1.74 0.04 0  1.76 0.04 0  1.78 0.04 0  1.8 0.04 0  1.82 0.04 0  1.84 0.04 0  1.86 0.04 0  1.88 0.04 0  1.9 0.04 0  1.92 0.04 0  1.94 0.04 0  1.96 0.04 0  1.98 0.04 0  2 0.04 0  0 0.06 0  0.02 0.06 0  0.04 0.06 0  0.06 0.06 0  0.08 0.06 0  0.1 0.06 0  0.12 0.06 0  0.14 0.06 0  0.16 0.06 0  0.18 0.06 0  0.2 0.06 0  0.22 0.06 0  0.24 0.06 0  0.26 0.06 0  0.28 0.06 0  0.3 0.06 0  0.32 0.06 0  0.34 0.06 0  0.36 0.06 0  0.38 0.06 0  0.4 0.06 0  0.42 0.06 0  0.44 0.06 0  0.46 0.06 0  0.48 0.06 0  0.5 0.06 0  0.52 0.06 0  0.54 0.06 0  0.5600000000000001 0.06 0  0.58 0.06 0  0.6 0.06 0  0.62 0.06 0  0.64 0.06 0  0.66 0.06 0  0.68 0.06 0  0.7 0.06 0  0.72 0.06 0  0.74 0.06 0  0.76 0.06 0  0.78 0.06 0  0.8 0.06 0  0.82 0.06 0  0.84 0.06 0  0.86 0.06 0  0.88 0.06 0  0.9 0.06 0  0.92 0.06 0  0.9399999999999999 0.06 0  0.96 0.06 0  0.98 0.06 0  1 0.06 0  1.02 0.06 0  1.04 0.06 0  1.06 0.06 0  1.08 0.06 0  1.1 0.06 0  1.12 0.06 0  1.14 0.06 0  1.16 0.06 0  1.18 0.06 0  1.2 0.06 0  1.22 0.06 0  1.24 0.06 0  1.26 0.06 0  1.28 0.06 0  1.3 0.06 0  1.32 0.06 0  1.34 0.06 0  1.36 0.06 0  1.38 0.06 0  1.4 0.06 0  1.42 0.06 0  1.44 0.06 0  1.46 0.06 0  1.48 0.06 0  1.5 0.06 0  1.52 0.06 0  1.54 0.06 0  1.56 0.06 0  1.58 0.06 0  1.6 0.06 0  1.62 0.06 0  1.64 0.06 0  1.66 0.06 0  1.68 0.06 0  1.7 0.06 0  1.72 0.06 0  1.74 0.06 0  1.76 0.06 0  1.78 0.06 0  1.8 0.06 0  1.82 0.06 0  1.84 0.06 0  1.86 0.06 0  1.88 0.06 0  1.9 0.06 0  1.92 0.06 0  1.94 0.06 0  1.96 0.06 0  1.98 0.06 0  2 0.06 0  0 0.08 0  0.02 0.08 0  0.04 0.08 0  0.06 0.08 0  0.08 0.08 0  0.1 0.08 0  0.12 0.08 0  0.14 0.08 0  0.16 0.08 0  0.18 0.08 0  0.2 0.08 0  0.22 0.08 0  0.24 0.08 0  0.26 0.08 0  0.28 0.08 0  0.3 0.08 0  0.32 0.08 0  0.34 0.08 0  0.36 0.08 0  0.38 0.08 0  0.4 0.08 0  0.42 0.08 0  0.44 0.08 0  0.46 0.08 0  0.48 0.08 0  0.5 0.08 0  0.52 0.08 0  0.54 0.08 0  0.5600000000000001 0.08 0  0.58 0.08 0  0.6 0.08 0  0.62 0.08 0  0.64 0.08 0  0.66 0.08 0  0.68 0.08 0  0.7 0.08 0  0.72 0.08 0  0.74 0.08 0  0.76 0.08 0  0.78 0.08 0  0.8 0.08 0  0.82 0.08 0  0.84 0.08 0  0.86 0.08 0  0.88 0.08 0  0.9 0.08 0  0.92 0.08 0  0.9399999999999999 0.08 0  0.96 0.08 0  0.98 0.08 0  1 0.08 0  1.02 0.08 0  1.04 0.08 0  1.06 0.08 0  1.08 0.08 0  1.1 0.08 0  1.12 0.08 0  1.14 0.08 0  1.16 0.08 0  1.18 0.08 0  1.2 0.08 0  1.22 0.08 0  1.24 0.08 0  1.26 0.08 0  1.28 0.08 0  1.3 0.08 0  1.32 0.08 0  1.34 0.08 0  1.36 0.08 0  1.38 0.08 0  1.4 0.08 0  1.42 0.08 0  1.44 0.08 0  1.46 0.08 0  1.48 0.08 0  1.5 0.08 0  1.52 0.08 0  1.54 0.08 0  1.56 0.08 0  1.58 0.08 0  1.6 0.08 0  1.62 0.08 0  1.64 0.08 0  1.66 0.08 0  1.68 0.08 0  1.7 0.08 0  1.72 0.08 0  1.74 0.08 0  1.76 0.08 0  1.78 0.08 0  1.8 0.08 0  1.82 0.08 0  1.84 0.08 0  1.86 0.08 0  1.88 0.08 0  1.9 0.08 0  1.92 0.08 0  1.94 0.08 0  1.96 0.08 0  1.98 0.08 0  2 0.08 0  0 0.1 0  0.02 0.1 0  0.04 0.1 0  0.06 0.1 0  0.08 0.1 0  0.1 0.1 0  0.12 0.1 0  0.14 0.1 0  0.16 0.1 0  0.18 0.1 0  0.2 0.1 0  0.22 0.1 0  0.24 0.1 0  0.26 0.1 0  0.28 0.1 0  0.3 0.1 0  0.32 0.1 0  0.34 0.1 0  0.36 0.1 0  0.38 0.1 0  0.4 0.1 0  0.42 0.1 0  0.44 0.1 0  0.46 0.1 0  0.48 0.1 0  0.5 0.1 0  0.52 0.1 0  0.54 0.1 0  0.5600000000000001 0.1 0  0.58 0.1 0  0.6 0.1 0  0.62 0.1 0  0.64 0.1 0  0.66 0.1 0  0.68 0.1 0  0.7 0.1 0  0.72 0.1 0  0.74 0.1 0  0.76 0.1 0  0.78 0.1 0  0.8 0.1 0  0.82 0.1 0  0.84 0.1 0  0.86 0.1 0  0.88 0.1 0  0.9 0.1 0  0.92 0.1 0  0.9399999999999999 0.1 0  0.96 0.1 0  0.98 0.1 0  1 0.1 0  1.02 0.1 0  1.04 0.1 0  1.06 0.1 0  1.08 0.1 0  1.1 0.1 0  1.12 0.1 0  1.14 0.1 0  1.16 0.1 0  1.18 0.1 0  1.2 0.1 0  1.22 0.1 0  1.24 0.1 0  1.26 0.1 0  1.28 0.1 0  1.3 0.1 0  1.32 0.1 0  1.34 0.1 0  1.36 0.1 0  1.38 0.1 0  1.4 0.1 0  1.42 0.1 0  1.44 0.1 0  1.46 0.1 0  1.48 0.1 0  1.5 0.1 0  1.52 0.1 0  1.54 0.1 0  1.56 0.1 0  1.58 0.1 0  1.6 0.1 0  1.62 0.1 0  1.64 0.1 0  1.66 0.1 0  1.68 0.1 0  1.7 0.1 0  1.72 0.1 0  1.74 0.1 0  1.76 0.1 0  1.78 0.1 0  1.8 0.1 0  1.82 0.1 0  1.84 0.1 0  1.86 0.1 0  1.88 0.1 0  1.9 0.1 0  1.92 0.1 0  1.94 0.1 0  1.96 0.1 0  1.98 0.1 0  2 0.1 0  0 0.12 0  0.02 0.12 0  0.04 0.12 0  0.06 0.12 0  0.08 0.12 0  0.1 0.12 0  0.12 0.12 0  0.14 0.12 0  0.16 0.12 0  0.18 0.12 0  0.2 0.12 0  0.22 0.12 0  0.24 0.12 0  0.26 0.12 0  0.28 0.12 0  0.3 0.12 0  0.32 0.12 0  0.34 0.12 0  0.36 0.12 0  0.38 0.12 0  0.4 0.12 0  0.42 0.12 0  0.44 0.12 0  0.46 0.12 0  0.48 0.12 0  0.5 0.12 0  0.52 0.12 0  0.54 0.12 0  0.5600000000000001 0.12 0  0.58 0.12 0  0.6 0.12 0  0.62 0.12 0  0.64 0.12 0  0.66 0.12 0  0.68 0.12 0  0.7 0.12 0  0.72 0.12 0  0.74 0.12 0  0.76 0.12 0  0.78 0.12 0  0.8 0.12 0  0.82 0.12 0  0.84 0.12 0  0.86 0.12 0  0.88 0.12 0  0.9 0.12 0  0.92 0.12 0  0.9399999999999999 0.12 0  0.96 0.12 0  0.98 0.12 0  1 0.12 0  1.02 0.12 0  1.04 0.12 0  1.06 0.12 0  1.08 0.12 0  1.1 0.12 0  1.12 0.12 0  1.14 0.12 0  1.16 0.12 0  1.18 0.12 0  1.2 0.12 0  1.22 0.12 0  1.24 0.12 0  1.26 0.12 0  1.28 0.12 0  1.3 0.12 0  1.32 0.12 0  1.34 0.12 0  1.36 0.12 0  1.38 0.12 0  1.4 0.12 0  1.42 0.12 0  1.44 0.12 0  1.46 0.12 0  1.48 0.12 0  1.5 0.12 0  1.52 0.12 0  1.54 0.12 0  1.56 0.12 0  1.58 0.12 0  1.6 0.12 0  1.62 0.12 0  1.64 0.12 0  1.66 0.12 0  1.68 0.12 0  1.7 0.12 0  1.72 0.12 0  1.74 0.12 0  1.76 0.12 0  1.78 0.12 0  1.8 0.12 0  1.82 0.12 0  1.84 0.12 0  1.86 0.12 0  1.88 0.12 0  1.9 0.12 0  1.92 0.12 0  1.94 0.12 0  1.96 0.12 0  1.98 0.12 0  2 0.12 0  0 0.14 0  0.02 0.14 0  0.04 0.14 0  0.06 0.14 0  0.08 0.14 0  0.1 0.14 0  0.12 0.14 0  0.14 0.14 0  0.16 0.14 0  0.18 0.14 0  0.2 0.14 0  0.22 0.14 0  0.24 0.14 0  0.26 0.14 0  0.28 0.14 0  0.3 0.14 0  0.32 0.14 0  0.34 0.14 0  0.36 0.14 0  0.38 0.14 0  0.4 0.14 0  0.42 0.14 0  0.44 0.14 0  0.46 0.14 0  0.48 0.14 0  0.5 0.14 0  0.52 0.14 0  0.54 0.14 0  0.5600000000000001 0.14 0  0.58 0.14 0  0.6 0.14 0  0.62 0.14 0  0.64 0.14 0  0.66 0.14 0  0.68 0.14 0  0.7 0.14 0  0.72 0.14 0  0.74 0.14 0  0.76 0.14 0  0.78 0.14 0  0.8 0.14 0  0.82 0.14 0  0.84 0.14 0  0.86 0.14 0  0.88 0.14 0  0.9 0.14 0  0.92 0.14 0  0.9399999999999999 0.14 0  0.96 0.14 0  0.98 0.14 0  1 0.14 0  1.02 0.14 0  1.04 0.14 0  1.06 0.14 0  1.08 0.14 0  1.1 0.14 0  1.12 0.14 0  1.14 0.14 0  1.16 0.14 0  1.18 0.14 0  1.2 0.14 0  1.22 0.14 0  1.24 0.14 0  1.26 0.14 0  1.28 0.14 0  1.3 0.14 0  1.32 0.14 0  1.34 0.14 0  1.36 0.14 0  1.38 0.14 0  1.4 0.14 0  1.42 0.14 0  1.44 0.14 0  1.46 0.14 0  1.48 0.14 0  1
[...]
<PointData  Scalars="sols[i]"> 
<DataArray  type="Float64"  Name="sols[i]"  format="ascii">3.8171376028597148e-01  3.4804058586093956e-01  3.4804060713931795e-01  3.4804064591167611e-01  3.4804070931608538e-01  3.4804080685490330e-01  3.4804095016972258e-01  3.4804115242412875e-01  3.4804142761034229e-01  3.4804178999570057e-01  3.4804225380557091e-01  3.4804283313337497e-01  3.4804354199687204e-01  3.4804439439645130e-01  3.4804540418154561e-01  3.4804658450068832e-01  3.4804794660616478e-01  3.4804949781394268e-01  3.4805123851409836e-01  3.4805315828501077e-01  3.4805523141220446e-01  3.4805741225392733e-01  3.4805963095977527e-01  3.4806179265129555e-01  3.4806377878887984e-01  3.4806545276205331e-01  3.4806667163102428e-01  3.4806730281435572e-01  3.4806724489692759e-01  3.4806645051468010e-01  3.4806494842468183e-01  3.4806286147900939e-01  3.4806041738490928e-01  3.4805794986889566e-01  3.4805588904640394e-01  3.4805474129307912e-01  3.4805506111954293e-01  3.4805742080460078e-01  3.4806237131398482e-01  3.4807039627581343e-01  3.4808189006180579e-01  3.4809713811173459e-01  3.4811630443149072e-01  3.4813942881701965e-01  3.4816643381856610e-01  3.4819713472445007e-01  3.4823124510985498e-01  3.4826837247752856e-01  3.4830800364544229e-01  3.4834949049738045e-01  3.4839205585686261e-01  3.4843483644063017e-01  3.4847696101049791e-01  3.4851763491356241e-01  3.4855617467435612e-01  3.4859194549076639e-01  3.4862426249342343e-01  3.4865238595590647e-01  3.4867567026619667e-01  3.4869378727754241e-01  3.4870688417611884e-01  3.4871570612553976e-01  3.4872172041946087e-01  3.4872711570293891e-01  3.4873472852037751e-01  3.4874812190924731e-01  3.4877178065601633e-01  3.4881103312330253e-01  3.4887160215643415e-01  3.4895934330666623e-01  3.4908066421054412e-01  3.4924308063702575e-01  3.4945469195160922e-01  3.4972146604115845e-01  3.5004251019665356e-01  3.5040343451105488e-01  3.5076771697030468e-01  3.5107032280955697e-01  3.5122613553389015e-01  3.5116588080131877e-01  3.5088421459045671e-01  3.5045507860554259e-01  3.4999248078873901e-01  3.4958771787570447e-01  3.4927628953441586e-01  3.4904941236886733e-01  3.4888069996102322e-01  3.4874499904386930e-01  3.4862596891162351e-01  3.4851646909550649e-01  3.4841569926516414e-01  3.4832575397126064e-01  3.4824901623470417e-01  3.4818678281524684e-01  3.4813890016225635e-01  3.4810399637500106e-01  3.4807995599682912e-01  3.4806442107181118e-01  3.4805522237157960e-01  3.4805072041329033e-01  4.3441939295678811e-01  3.4804058548906441e-01  3.0466979428484359e-01  3.0466983420426674e-01  3.0466990668424548e-01  3.0467002153261091e-01  3.0467019102800419e-01  3.0467042996321048e-01  3.0467075523210602e-01  3.0467118514334290e-01  3.0467173877028181e-01  3.0467243552032808e-01  3.0467329495485529e-01  3.0467433676217365e-01  3.0467558068106954e-01  3.0467704609627494e-01  3.0467875098695352e-01  3.0468070992265456e-01  3.0468293088694415e-01  3.0468541088256434e-01  3.0468813054655997e-01  3.0469104835378230e-01  3.0469409537918618e-01  3.0469717189134782e-01  3.0470014793082623e-01  3.0470286931825152e-01  3.0470516967925698e-01  3.0470689010071944e-01  3.0470790498746347e-01  3.0470815210425450e-01  3.0470766350555289e-01  3.0470659324882537e-01  3.0470523761591817e-01  3.0470404409955454e-01  3.0470360657055368e-01  3.0470464559590049e-01  3.0470797456191540e-01  3.0471445400764319e-01  3.0472493906673209e-01  3.0474022588412003e-01  3.0476099230523523e-01  3.0478775163881788e-01  3.0482082351201861e-01  3.0486032690395010e-01  3.0490618564959260e-01  3.0495814767222484e-01  3.0501580350219709e-01  3.0507858397380744e-01  3.0514572036499538e-01  3.0521616407122204e-01  3.0528849913395589e-01  3.0536091111992547e-01  3.0543126323255360e-01  3.0549727709813623e-01  3.0555672836827846e-01  3.0560748494622703e-01  3.0564723268470151e-01  3.0567308400158028e-01  3.0568153235522705e-01  3.0566890818384113e-01  3.0563198928441687e-01  3.0556818618074183e-01  3.0547554066449817e-01  3.0535319300854336e-01  3.0520164024490326e-01  3.0502231284051234e-01  3.0481788563720752e-01  3.0459382171521643e-01  3.0435894608408937e-01  3.0412372871571119e-01  3.0389869008748016e-01  3.0369509379058601e-01  3.0352592356361097e-01  3.0340438724675822e-01  3.0334070341909869e-01  3.0334098507121060e-01  3.0340944955241783e-01  3.0354877586535262e-01  3.0375301510035874e-01  3.0399690571790899e-01  3.0424297585444049e-01  3.0447531215591289e-01  3.0471883389477489e-01  3.0500024649698998e-01  3.0529618867746833e-01  3.0555070418823144e-01  3.0572046967234284e-01  3.0579308219434276e-01  3.0577896857539355e-01  3.0569877440542415e-01  3.0557543307339868e-01  3.0543028466793920e-01  3.0528107764794532e-01  3.0514095157452942e-01  3.0501823876646095e-01  3.0491696641146160e-01  3.0483781402366467e-01  3.0477923289436326e-01  3.0473849316830942e-01  3.0471253807845478e-01  3.0469865629194776e-01  3.4805051747486143e-01  3.4804060552021532e-01  3.0466983201801395e-01  3.0466988999982492e-01  3.0466998951672325e-01  3.0467013704260049e-01  3.0467033919358871e-01  3.0467060289023884e-01  3.0467093579636340e-01  3.0467134653361383e-01  3.0467184466677683e-01  3.0467244057789578e-01  3.0467314529632750e-01  3.0467397025925808e-01  3.0467492689110576e-01  3.0467602583225095e-01  3.0467727563713626e-01  3.0467868081518368e-01  3.0468023921676884e-01  3.0468193897671503e-01  3.0468375550728638e-01  3.0468564931250042e-01  3.0468756563984783e-01  3.0468943710535107e-01  3.0469119038415371e-01  3.0469275736228491e-01  3.0469408999556014e-01  3.0469517821522762e-01  3.0469606812244132e-01  3.0469687806132073e-01  3.0469781010890806e-01  3.0469915516598250e-01  3.0470129084878422e-01  3.0470467244956817e-01  3.0470981799904112e-01  3.0471728862906700e-01  3.0472766501788873e-01  3.0474152028468299e-01  3.0475939028196647e-01  3.0478174385836537e-01  3.0480894957956661e-01  3.0484124315407934e-01  3.0487871391741311e-01  3.0492129882888142e-01  3.0496879470552485e-01  3.0502087381507903e-01  3.0507709031072411e-01  3.0513685429039011e-01  3.0519935229033901e-01  3.0526340888674280e-01  3.0532734350009255e-01  3.0538891720940103e-01  3.0544543316682216e-01  3.0549398504933672e-01  3.0553173001158423e-01  3.0555592767649414e-01  3.0556347746491347e-01  3.0555032255789605e-01  3.0551147950404717e-01  3.0544184613255471e-01  3.0533718851666980e-01  3.0519423552661495e-01  3.0501040462487727e-01  3.0478479824908250e-01  3.0451932710806556e-01  3.0421806754738401e-01  3.0388695941910432e-01  3.0353609777121027e-01  3.0318123810499481e-01  3.0284146805078160e-01  3.0253727341826642e-01  3.0229305178324334e-01  3.0213880297373141e-01  3.0210470664354355e-01  3.0221351342096292e-01  3.0248260784752490e-01  3.0293021175372992e-01  3.0355393300669009e-01  3.0425116247052181e-01  3.0474233208507828e-01  3.0474253896901177e-01  3.0433744563306114e-01  3.0398465206143349e-01  3.0403559390546481e-01  3.0442389955114130e-01  3.0488805680352504e-01  3.0524966650670404e-01  3.0546223136022010e-01  3.0554711195294748e-01  3.0554129940784908e-01  3.0547745713123614e-01  3.0538044502369116e-01  3.0526848854132033e-01  3.0515463493999656e-01  3.0504773653287914e-01  3.0495320475373611e-01  3.0487377164590546e-01  3.0481028874421506e-01  3.0476246997701506e-01  3.0472950186013825e-01  3.0471058252087735e-01  3.4805409479381960e-01  3.4804064136439433e-01  3.0466989914893106e-01  3.0466998373819565e-01  3.0467011974574937e-01  3.0467030842222986e-01  3.0467054998568144e-01  3.0467084324267207e-01  3.0467118643882812e-01  3.0467157831514979e-01  3.0467201887843687e-01  3.0467250979188953e-01  3.0467305441031656e-01  3.0467365747333219e-01  3.0467432442454417e-01  3.0467506029792363e-01  3.0467586813874459e-01  3.0467674702658171e-01  3.0467768994687172e-01  3.0467868201005899e-01  3.0467969981919701e-01  3.0468071300470961e-01  3.0468168904673271e-01  3.0468260232004846e-01  3.0468344760728633e-01  3.0468425707733077e-01  3.0468511822571925e-01  3.0468618966294031e-01  3.0468771060590549e-01  3.0469000096441795e-01  3.0469345056181035e-01  3.0469849827577289e-01  3.0470560433096300e-01  3.0471522075316965e-01  3.0472776532033580e-01  3.0474360272032469e-01  3.0476303343116928e-01  3.0478628772196170e-01  3.0481352112535032e-01  3.0484480906489292e-01  3.0488013555556748e-01  3.0491936966756911e-01  3.0496226910415447e-01  3.0500848519076629e-01  3.0505756986666294e-01  3.0510899528606406e-01  3.0516215009340725e-01  3.0521628003285828e-01  3.0527034006983456e-01  3.0532274139256482e-01  3.0537109158943915e-01  3.0541208519249946e-01  3.0544162603076785e-01  3.0545518615616463e-01  3.0544824073738513e-01  3.0541636276549833e-01  3.0535444595982597e-01  3.0525576004133653e-01  3.0511210504554098e-01  3.0491518634583992e-01  3.0465862800219862e-01  3.0433869055869062e-01  3.0395365435808658e-01  3.0350558719758469e-01  3.0300439476995339e-01  3.0246883650954687e-01  3.0192655705887123e-01  3.0141948797117030e-01  3.0100688332093606e-01  3.0076261553012257e-01  3.0078517141389916e-01  3.0123145472577673e-01  3.0234743217012028e-01  3.0441641082465060e-01  3.0754460626695385e-01  3.1142345876243671e-01  3.1542404143627562e-01  3.1899822418824930e-01  3.2164780766138074e-01  3.2292398852305265e-01  3.2246798906707613e-01  3.1878661562326510e-01  3.1110763383823070e-01  3.0451528546547929e-01  3.0332339706929612e-01  3.0387622148252269e-01  3.0456958675719825e-01  3.0503710447518934e-01  3.0528538219018936e-01  3.0538541905653233e-01  3.0539464520720472e-01  3.0535027013693461e-01  3.0527587592273803e-01  3.0518703020182519e-01  3.0509438608628647e-01  3.0500523804566415e-01  3.0492442646252704e-01  3.0485502604004733e-01  3.0479894596514778e-01  3.0475748545901143e-01  3.0473196530535912e-01  3.4806113533801830e-01  3.4804069879479460e-01  3.0467000316171233e-01  3.0467011966435953e-01  3.0467029658375394e-01  3.0467052764654334e-01  3.0467080618236236e-01  3.0467112367430577e-01  3.0467147043623327e-01  3.0467183719536101e-01  3.0467221660693045e-01  3.0467260427759646e-01  3.0467299917353807e-01  3.0467340339500948e-01  3.0467382132224424e-01  3.0467425816231497e-01  3.0467471800490947e-01  3.0467520165122319e-01  3.0467570471098743e-01  3.0467621676230161e-01  3.0467672271610807e-01  3.0467720771223455e-01  3.0467766687912062e-01  3.0467812077181389e-01  3.0467863592515360e-01  3.0467934788974294e-01  3.0468048219703669e-01  3.0468236756151712e-01  3.0468543583999758e-01  3.0469020504196093e-01  3.0469724496216277e-01  3.0470712911236902e-01  3.0472038060631829e-01  3.0473742228502404e-01  3.0475854113795037e-01  3.0478387305153853e-01  3.0481340693775355e-01  3.0484700083169730e-01  3.0488440016306734e-01  3.0492525031754364e-01  3.0496909672814193e-01  3.0501536716078359e-01  3.0506336794008521e-01  3.0511229901707121e-01  3.0516126087896561e-01  3.0520927112230639e-01  3.0525524890461869e-01  3.0529790820872565e-01  3.0533550177763930e-01  3.0536536673433295e-01  3.0538346506395497e-01  3.0538418520625504e-01  3.0536046246479237e-01  3.0530424259538508e-01  3.0520716177671470e-01  3.0506084749245338e-01  3.0485577477452219e-01  3.0458013381019627e-01  3.0422079482752434e-01  3.0376577985727549e-01  3.0320883763788609e-01  3.0255487479725479e-01  3.0182322431728520e-01  3.0105504942868461e-01  3.0033222034296558e-01  2.9980440604558051e-01  2.9974974106170238e-01  3.0070754776746605e-01  3.0341581470954027e-01  3.0774202863373129e-01  3.1201684138970143e-01  3.1565835684663229e-01  3.2019363690949881e-01  3.2215925491275227e-01  3.2306983748282869e-01  3.3819315450424425e-01  3.5942375449106950e-01  3.8567638555778344e-01  4.0894731030563491e-01  4.1775520922356946e-01  4.0656460942834938e-01  3.7101559572985765e-01  3.2888534449945889e-01  3.1995098434675556e-01  3.0580821841929262e-01  3.0279492054280521e-01  3.0370797957095197e-01  3.0454414655886491e-01  3.0502094999344881e-01  3.0525226527036636e-01  3.0534030714646643e-01  3.0534555362214488e-01  3.0530266934468886e-01  3.0523284962533703e-01  3.0515006467419958e-01  3.0506394480615290e-01  3.0498121683079210e-01  3.0490659691311894e-01  3.0484350614369327e-01  3.0479476981036757e-01  3.0476337135174764e-01  3.4807228044317395e-01  3.4804078535906752e-01  3.0467015346287935e-01  3.0467030253829946e-01  3.0467051962598429e-01  3.0467078887912391e-01  3.0467109595261033e-01  3.0467142557758720e-01  3.0467176175957500e-01  3.0467208956566394e-01  3.0467239724285683e-01  3.0467267789383540e-01  3.0467293034907156e-01  3.0467315910077480e-01  3.0467337328209360e-01  3.0467358477928180e-01  3.0467380572203379e-01  3.0467404582151492e-01  3.0467431030853293e-01  3.0467459957107490e-01  3.0467491202374986e-01  3.0467525197922746e-01  3.0467564428913652e-01  3.0467615658131886e-01  3.0467692761311121e-01  3.0467819703745591e-01  3.0468032935187600e-01  3.0468382389100807e-01  3.0468930386759224e-01  3.0469748037582495e-01  3.0470909202932173e-01  3.0472482721483779e-01  3.0474524176416701e-01  3.0477068866043966e-01  3.0480127541354118e-01  3.0483685711974928e-01  3.0487706049719526e-01  3.0492132332880262e-01  3.0496893090238525e-01  3.0501903545759124e-01  3.0507065097435565e-01  3.0512262173654581e-01  3.0517359547538403e-01  3.0522201737779331e-01  3.0526612613266690e-01  3.0530395621323525e-01  3.0533329103042534e-01  3.0535147972077203e-01  3.0535501385216601e-01  3.0533872950204438e-01  3.0529503474418840e-01  3.0521364197453688e-01  3.0508169936963447e-01  3.0488429203953860e-01  3.0460545427999008e-01  3.0422936067514633e-01  3.0373968204239554e-01  3.0312000083241752e-01  3.0236003908500753e-01  3.0146582835896280e-01  3.0047908808589502e-01  2.9951764122668117e-01  2.9885580399349049e-01  2.9914840009789606e-01  3.0177108664274899e-01  3.0698300025121844e-01  3.1106289604179149e-01  3.1513697631701160e-01  3.2122794226210338e-01  3.1923800706376226e-01  3.3254185768684380e-01  3.5394003939646118e-01  3.8431538914090196e-01  4.1694014046735373e-01  4.5155772410537909e-01  5.1993111452006924e-01  7.5248934373479393e-01  8.0728795598730407e-01  8.5450956198010175e-01  8.7630497215659897e-01  8.3146789226986129e-01  8.0235364177117785e-01  4.5068687700512722e-01  3.5301215678803344e-01  3.1962638954613554e-01  3.0348304985540381e-01  3.0279861640749534e-01  3.0402099324625997e-01  3.0476448308123943e-01  3.0513769290916753e-01  3.0530394849717163e-01  3.0535405797080151e-01  3.0533684993982818e-01  3.0528098469738951e-01  3.0520477957991832e-01  3.0512052360149694e-01  3.0503663110350204e-01  3.0495897613575018e-01  3.0489193317563157e-01  3.0483930501768935e-01  3.0480493235380229e-01  3.4808820647065769e-01  3.4804091024148992e-01  3.0467036186090118e-01  3.0467053872704969e-01  3.0467078976714523e-01  3.0467108837063911e-01  3.0467141153231553e-01  3.0467173729949082e-01  3.0467204461185882e-01  3.0467231511445447e-01  3.0467253571804892e-01  3.0467270086874498e-01  3.0467281388739281e-01  3.0467288705154688e-01  3.0467294031882058e-01  3.0467299881037063e-01  3.0467308944512200e-01  3.0467323741604535e-01  3.0467346352364810e-01  3.0467378375042498e-01  3.0467421304742265e-01  3.0467477584625352e-01  3.0467552592171993e-01  3.0467657660583963e-01  3.0467813858467091e-01  3.0468055761728935e-01  3.0468434133092176e-01  3.0469016468496229e-01  3.0469884580196865e-01  3.0471128746889864e-01  3.0472838607570657e-01  3.0475091896640238e-01  3.0477942943593866e-01  3.0481413439823263e-01  3.0485487772749681e-01  3.0490113874403979e-01  3.0495208309108440e-01  3.0500662652214239e-01  3.0506348112087744e-01  3.0512116348539953e-01  3.0517795747944360e-01  3.0523183458677611e-01  3.0528036744549109e-01  3.0532066061579338e-01  3.0534928568454189e-01  3.0536221928476948e-01  3.0535470609654408e-01  3.0532093920783732e-01  3.0525339684491826e-01  3.0514149884734076e-01  3.0497041246529960e-01  3.0472094056689764e-01  3.0437008724982179e-01  3.0389211610712502e-01  3.0326089250264793e-01  3.0245583117964342e-01  3.0147038734517734e-01  3.0032996836667009e-01  2.9913980146498315e-01  2.9820300608606043e-01  2.9839236066089098e-01  3.0174110418927902e-01  3.0724599075560233e-01  3.1147624874662999e-01  3.1739696039103615e-01  3.1712157066562768e-01  3.2415210404619910e-01  3.4574219771082620e-01  3.7973630566340361e-01  4.2173397923225792e-01  6.5749785084177426e-01  7.8555600921160496e-01  8.4026644473783751e-01  8.7311252653125648e-01  8.9557177352192241e-01  9.3326288823239878e-01  9.5882420387630862e-01  9.7174645859124342e-01  9.7491589421682057e-01  9.7547426967171547e-01  9.7463130957623201e-01  9.7005060703316603e-01  8.9610395877561233e-01  6.9482341371278189e-01  4.4182038396499984e-01  3.7132587077489365e-01  3.2894085563688563e-01  3.0359363466480771e-01  3.0455389321341741e-01  3.0503938348972964e-01  3.0527065000157877e-01  3.0535969350701631e-01  3.0536463730826180e-01  3.0532038886456664e-01  3.0524971211624724e-01  3.0516776228025194e-01  3.0508463042781137e-01  3.0500715993455213e-01  3.0494041444222741e-01  3.0488879291862553e-01  3.0485601290390579e-01  3.4810936533989595e-01  3.4804108394407185e-01  3.0467064282385325e-01  3.0467083754158292e-01  3.0467111114220125e-01  3.0467142624974280e-01  3.0467175034801397e-01  3.0467205456240576e-01  3.0467231362156000e-01  3.0467250770939486e-01  3.0467262535476142e-01  3.0467266620240407e-01  3.0467264275409256e-01  3.0467258050482660e-01  3.0467251623363956e-01  3.0467249458599521e-01  3.0467256351847749e-01  3.0467276953679662e-01  3.0467315398817052e-01  3.0467375195538632e-01  3.0467459612744274e-01  3.0467572960293338e-01  3.0467723185173162e-01  3.0467925910317811e-01  3.0468209434678983e-01  3.0468619455488255e-01  3.0469221930524493e-01  3.0470102935170829e-01  3.0471364581082883e-01  3.0473116362069680e-01  3.0475462173430851e-01  3.0478484604155975e-01  3.0482229280019701e-01  3.0486692986194325e-01  3.0491818944051707e-01  3.0497500223785129e-01  3.0503588387728808e-01  3.0509902050328164e-01  3.0516230696179947e-01  3.0522331156601734e-01  3.0527916241638714e-01  3.0532635850693096e-01  3.0536055668028267e-01  3.0537636540238439e-01  3.0536711919086346e-01  3.0532461686594042e-01  3.0523873611543167e-01  3.0509688975139637e-01  3.0488313580935655e-01  3.0457618655744573e-01  3.0414817737410355e-01  3.0356616774617601e-01  3.0279599473167990e-01  3.0181032564249127e-01  3.0060580512669061e-01  2.9924729680602913e-01  2.9797705406681058e-01  2.9755995243956940e-01  3.0018029386929357e-01  3.0582721104368760e-01  3.0986203626289749e-01  3.1630674582825957e-01  3.1593144798718836e-01  3.2027669185488833e-01  3.4481140303039320e-01  3.8574313078209099e-01  6.7461394908869976e-01  8.0061754582692912e-01  8.6869870742977551e-01  8.8495049074310372e-01  9.3007045425213841e-01  9.5865672268841207e-01  9.7343351150271462e-01  9.7740874882384710e-01  9.7777624774748284e-01  9.8132588250951436e-01  9.8804115826357775e-01  9.9248309502663012e-01  9.9294116758604856e-01  9.9265877378394507e-01  9.9234357238943516e-01  9.8856768384341442e-01  9.7007155357327746e-01  7.4047320299137631e-01  6.0590290735974228e-01  5.5045453412886269e-01  5.2056115202612208e-01  3.5017351879293634e-01  3.0444697041343960e-01  3.0495198227073578e-01  3.0521983257357471e-01  3.0534318040631930e-01  3.0537159458394342e-01  3.0534092648395317e-01  3.0527768942222760e-01  3.0520028850227127e-01  3.0512087305001545e-01  3.0504745886125445e-01  3.0498584745085833e-01  3.0494082846772508e-01  3.0491500562757690e-01  3.4813581283343181e-01  3.4804131816695910e-01  3.0467101386077283e-01  3.0467121244523543e-01  3.0467149312471137e-01  3.0467180898402624e-01  3.0467211757265567e-01  3.0467238287954668e-01  3.0467257610683018e-01  3.0467267772231649e-01  3.0467268064232400e-01  3.0467259341931052e-01  3.0467244228314611e-01  3.0467227117774420e-01  3.0467213937301069e-01  3.0467211682482648e-01  3.0467227811417319e-01  3.0467269615043807e-01  3.0467343710149825e-01  3.0467455787421766e-01  3.0467610859457650e-01  3.0467814724045272e-01  3.04680773389