<?xml version="1.0"?>
<VTKFile type="UnstructuredGrid"  version="0.1"  >
<UnstructuredGrid>
<Piece  NumberOfPoints="5151" NumberOfCells="10000">
<Points>
<DataArray  type="Float64"  NumberOfComponents="3"  format="ascii">0 0 0  0.02 0 0  0.04 0 0  0.06 0 0  0.08 0 0  0.1 0 0  0.12 0 0  0.14 0 0  0.16 0 0  0.18 0 0  0.2 0 0  0.22 0 0  0.24 0 0  0.26 0 0  0.28 0 0  0.3 0 0  0.32 0 0  0.34 0 0  0.36 0 0  0.38 0 0  0.4 0 0  0.42 0 0  0.44 0 0  0.46 0 0  0.48 0 0  0.5 0 0  0.52 0 0  0.54 0 0  0.5600000000000001 0 0  0.58 0 0  0.6 0 0  0.62 0 0  0.64 0 0  0.66 0 0  0.68 0 0  0.7 0 0  0.72 0 0  0.74 0 0  0.76 0 0  0.78 0 0  0.8 0 0  0.82 0 0  0.84 0 0  0.86 0 0  0.88 0 0  0.9 0 0  0.92 0 0  0.9399999999999999 0 0  0.96 0 0  0.98 0 0  1 0 0  1.02 0 0  1.04 0 0  1.06 0 0  1.08 0 0  1.1 0 0  1.12 0 0  1.14 0 0  1.16 0 0  1.18 0 0  1.2 0 0  1.22 0 0  1.24 0 0  1.26 0 0  1.28 0 0  1.3 0 0  1.32 0 0  1.34 0 0  1.36 0 0  1.38 0 0  1.4 0 0  1.42 0 0  1.44 0 0  1.46 0 0  1.48 0 0  1.5 0 0  1.52 0 0  1.54 0 0  1.56 0 0  1.58 0 0  1.6 0 0  1.62 0 0  1.64 0 0  1.66 0 0  1.68 0 0  1.7 0 0  1.72 0 0  1.74 0 0  1.76 0 0  1.78 0 0  1.8 0 0  1.82 0 0  1.84 0 0  1.86 0 0  1.88 0 0  1.9 0 0  1.92 0 0  1.94 0 0  1.96 0 0  1.98 0 0  2 0 0  0 0.02 0  0.02 0.02 0  0.04 0.02 0  0.06 0.02 0  0.08 0.02 0  0.1 0.02 0  0.12 0.02 0  0.14 0.02 0  0.16 0.02 0  0.18 0.02 0  0.2 0.02 0  0.22 0.02 0  0.24 0.02 0  0.26 0.02 0  0.28 0.02 0  0.3 0.02 0  0.32 0.02 0  0.34 0.02 0  0.36 0.02 0  0.38 0.02 0  0.4 0.02 0  0.42 0.02 0  0.44 0.02 0  0.46 0.02 0  0.48 0.02 0  0.5 0.02 0  0.52 0.02 0  0.54 0.02 0  0.5600000000000001 0.02 0  0.58 0.02 0  0.6 0.02 0  0.62 0.02 0  0.64 0.02 0  0.66 0.02 0  0.68 0.02 0  0.7 0.02 0  0.72 0.02 0  0.74 0.02 0  0.76 0.02 0  0.78 0.02 0  0.8 0.02 0  0.82 0.02 0  0.84 0.02 0  0.86 0.02 0  0.88 0.02 0  0.9 0.02 0  0.92 0.02 0  0.9399999999999999 0.02 0  0.96 0.02 0  0.98 0.02 0  1 0.02 0  1.02 0.02 0  1.04 0.02 0  1.06 0.02 0  1.08 0.02 0  1.1 0.02 0  1.12 0.02 0  1.14 0.02 0  1.16 0.02 0  1.18 0.02 0  1.2 0.02 0  1.22 0.02 0  1.24 0.02 0  1.26 0.02 0  1.28 0.02 0  1.3 0.02 0  1.32 0.02 0  1.34 0.02 0  1.36 0.02 0  1.38 0.02 0  1.4 0.02 0  1.42 0.02 0  1.44 0.02 0  1.46 0.02 0  1.48 0.02 0  1.5 0.02 0  1.52 0.02 0  1.54 0.02 0  1.56 0.02 0  1.58 0.02 0  1.6 0.02 0  1.62 0.02 0  1.64 0.02 0  1.66 0.02 0  1.68 0.02 0  1.7 0.02 0  1.72 0.02 0  1.74 0.02 0  1.76 0.02 0  1.78 0.02 0  1.8 0.02 0  1.82 0.02 0  1.84 0.02 0  1.86 0.02 0  1.88 0.02 0  1.9 0.02 0  1.92 0.02 0  1.94 0.02 0  1.96 0.02 0  1.98 0.02 0  2 0.02 0  0 0.04 0  0.02 0.04 0  0.04 0.04 0  0.06 0.04 0  0.08 0.04 0  0.1 0.04 0  0.12 0.04 0  0.14 0.04 0  0.16 0.04 0  0.18 0.04 0  0.2 0.04 0  0.22 0.04 0  0.24 0.04 0  0.26 0.04 0  0.28 0.04 0  0.3 0.04 0  0.32 0.04 0  0.34 0.04 0  0.36 0.04 0  0.38 0.04 0  0.4 0.04 0  0.42 0.04 0  0.44 0.04 0  0.46 0.04 0  0.48 0.04 0  0.5 0.04 0  0.52 0.04 0  0.54 0.04 0  0.5600000000000001 0.04 0  0.58 0.04 0  0.6 0.04 0  0.62 0.04 0  0.64 0.04 0  0.66 0.04 0  0.68 0.04 0  0.7 0.04 0  0.72 0.04 0  0.74 0.04 0  0.76 0.04 0  0.78 0.04 0  0.8 0.04 0  0.82 0.04 0  0.84 0.04 0  0.86 0.04 0  0.88 0.04 0  0.9 0.04 0  0.92 0.04 0  0.9399999999999999 0.04 0  0.96 0.04 0  0.98 0.04 0  1 0.04 0  1.02 0.04 0  1.04 0.04 0  1.06 0.04 0  1.08 0.04 0  1.1 0.04 0  1.12 0.04 0  1.14 0.04 0  1.16 0.04 0  1.18 0.04 0  1.2 0.04 0  1.22 0.04 0  1.24 0.04 0  1.26 0.04 0  1.28 0.04 0  1.3 0.04 0  1.32 0.04 0  1.34 0.04 0  1.36 0.04 0  1.38 0.04 0  1.4 0.04 0  1.42 0.04 0  1.44 0.04 0  1.46 0.04 0  1.48 0.04 0  1.5 0.04 0  1.52 0.04 0  1.54 0.04 0  1.56 0.04 0  1.58 0.04 0  1.6 0.04 0  1.62 0.04 0  1.64 0.04 0  1.66 0.04 0  1.68 0.04 0  1.7 0.04 0  1.72 0.04 0  1.74 0.04 0  1.76 0.04 0  1.78 0.04 0  1.8 0.04 0  1.82 0.04 0  1.84 0.04 0  1.86 0.04 0  1.88 0.04 0  1.9 0.04 0  1.92 0.04 0  1.94 0.04 0  1.96 0.04 0  1.98 0.04 0  2 0.04 0  0 0.06 0  0.02 0.06 0  0.04 0.06 0  0.06 0.06 0  0.08 0.06 0  0.1 0.06 0  0.12 0.06 0  0.14 0.06 0  0.16 0.06 0  0.18 0.06 0  0.2 0.06 0  0.22 0.06 0  0.24 0.06 0  0.26 0.06 0  0.28 0.06 0  0.3 0.06 0  0.32 0.06 0  0.34 0.06 0  0.36 0.06 0  0.38 0.06 0  0.4 0.06 0  0.42 0.06 0  0.44 0.06 0  0.46 0.06 0  0.48 0.06 0  0.5 0.06 0  0.52 0.06 0  0.54 0.06 0  0.5600000000000001 0.06 0  0.58 0.06 0  0.6 0.06 0  0.62 0.06 0  0.64 0.06 0  0.66 0.06 0  0.68 0.06 0  0.7 0.06 0  0.72 0.06 0  0.74 0.06 0  0.76 0.06 0  0.78 0.06 0  0.8 0.06 0  0.82 0.06 0  0.84 0.06 0  0.86 0.06 0  0.88 0.06 0  0.9 0.06 0  0.92 0.06 0  0.9399999999999999 0.06 0  0.96 0.06 0  0.98 0.06 0  1 0.06 0  1.02 0.06 0  1.04 0.06 0  1.06 0.06 0  1.08 0.06 0  1.1 0.06 0  1.12 0.06 0  1.14 0.06 0  1.16 0.06 0  1.18 0.06 0  1.2 0.06 0  1.22 0.06 0  1.24 0.06 0  1.26 0.06 0  1.28 0.06 0  1.3 0.06 0  1.32 0.06 0  1.34 0.06 0  1.36 0.06 0  1.38 0.06 0  1.4 0.06 0  1.42 0.06 0  1.44 0.06 0  1.46 0.06 0  1.48 0.06 0  1.5 0.06 0  1.52 0.06 0  1.54 0.06 0  1.56 0.06 0  1.58 0.06 0  1.6 0.06 0  1.62 0.06 0  1.64 0.06 0  1.66 0.06 0  1.68 0.06 0  1.7 0.06 0  1.72 0.06 0  1.74 0.06 0  1.76 0.06 0  1.78 0.06 0  1.8 0.06 0  1.82 0.06 0  1.84 0.06 0  1.86 0.06 0  1.88 0.06 0  1.9 0.06 0  1.92 0.06 0  1.94 0.06 0  1.96 0.06 0  1.98 0.06 0  2 0.06 0  0 0.08 0  0.02 0.08 0  0.04 0.08 0  0.06 0.08 0  0.08 0.08 0  0.1 0.08 0  0.12 0.08 0  0.14 0.08 0  0.16 0.08 0  0.18 0.08 0  0.2 0.08 0  0.22 0.08 0  0.24 0.08 0  0.26 0.08 0  0.28 0.08 0  0.3 0.08 0  0.32 0.08 0  0.34 0.08 0  0.36 0.08 0  0.38 0.08 0  0.4 0.08 0  0.42 0.08 0  0.44 0.08 0  0.46 0.08 0  0.48 0.08 0  0.5 0.08 0  0.52 0.08 0  0.54 0.08 0  0.5600000000000001 0.08 0  0.58 0.08 0  0.6 0.08 0  0.62 0.08 0  0.64 0.08 0  0.66 0.08 0  0.68 0.08 0  0.7 0.08 0  0.72 0.08 0  0.74 0.08 0  0.76 0.08 0  0.78 0.08 0  0.8 0.08 0  0.82 0.08 0  0.84 0.08 0  0.86 0.08 0  0.88 0.08 0  0.9 0.08 0  0.92 0.08 0  0.9399999999999999 0.08 0  0.96 0.08 0  0.98 0.08 0  1 0.08 0  1.02 0.08 0  1.04 0.08 0  1.06 0.08 0  1.08 0.08 0  1.1 0.08 0  1.12 0.08 0  1.14 0.08 0  1.16 0.08 0  1.18 0.08 0  1.2 0.08 0  1.22 0.08 0  1.24 0.08 0  1.26 0.08 0  1.28 0.08 0  1.3 0.08 0  1.32 0.08 0  1.34 0.08 0  1.36 0.08 0  1.38 0.08 0  1.4 0.08 0  1.42 0.08 0  1.44 0.08 0  1.46 0.08 0  1.48 0.08 0  1.5 0.08 0  1.52 0.08 0  1.54 0.08 0  1.56 0.08 0  1.58 0.08 0  1.6 0.08 0  1.62 0.08 0  1.64 0.08 0  1.66 0.08 0  1.68 0.08 0  1.7 0.08 0  1.72 0.08 0  1.74 0.08 0  1.76 0.08 0  1.78 0.08 0  1.8 0.08 0  1.82 0.08 0  1.84 0.08 0  1.86 0.08 0  1.88 0.08 0  1.9 0.08 0  1.92 0.08 0  1.94 0.08 0  1.96 0.08 0  1.98 0.08 0  2 0.08 0  0 0.1 0  0.02 0.1 0  0.04 0.1 0  0.06 0.1 0  0.08 0.1 0  0.1 0.1 0  0.12 0.1 0  0.14 0.1 0  0.16 0.1 0  0.18 0.1 0  0.2 0.1 0  0.22 0.1 0  0.24 0.1 0  0.26 0.1 0  0.28 0.1 0  0.3 0.1 0  0.32 0.1 0  0.34 0.1 0  0.36 0.1 0  0.38 0.1 0  0.4 0.1 0  0.42 0.1 0  0.44 0.1 0  0.46 0.1 0  0.48 0.1 0  0.5 0.1 0  0.52 0.1 0  0.54 0.1 0  0.5600000000000001 0.1 0  0.58 0.1 0  0.6 0.1 0  0.62 0.1 0  0.64 0.1 0  0.66 0.1 0  0.68 0.1 0  0.7 0.1 0  0.72 0.1 0  0.74 0.1 0  0.76 0.1 0  0.78 0.1 0  0.8 0.1 0  0.82 0.1 0  0.84 0.1 0  0.86 0.1 0  0.88 0.1 0  0.9 0.1 0  0.92 0.1 0  0.9399999999999999 0.1 0  0.96 0.1 0  0.98 0.1 0  1 0.1 0  1.02 0.1 0  1.04 0.1 0  1.06 0.1 0  1.08 0.1 0  1.1 0.1 0  1.12 0.1 0  1.14 0.1 0  1.16 0.1 0  1.18 0.1 0  1.2 0.1 0  1.22 0.1 0  1.24 0.1 0  1.26 0.1 0  1.28 0.1 0  1.3 0.1 0  1.32 0.1 0  1.34 0.1 0  1.36 0.1 0  1.38 0.1 0  1.4 0.1 0  1.42 0.1 0  1.44 0.1 0  1.46 0.1 0  1.48 0.1 0  1.5 0.1 0  1.52 0.1 0  1.54 0.1 0  1.56 0.1 0  1.58 0.1 0  1.6 0.1 0  1.62 0.1 0  1.64 0.1 0  1.66 0.1 0  1.68 0.1 0  1.7 0.1 0  1.72 0.1 0  1.74 0.1 0  1.76 0.1 0  1.78 0.1 0  1.8 0.1 0  1.82 0.1 0  1.84 0.1 0  1.86 0.1 0  1.88 0.1 0  1.9 0.1 0  1.92 0.1 0  1.94 0.1 0  1.96 0.1 0  1.98 0.1 0  2 0.1 0  0 0.12 0  0.02 0.12 0  0.04 0.12 0  0.06 0.12 0  0.08 0.12 0  0.1 0.12 0  0.12 0.12 0  0.14 0.12 0  0.16 0.12 0  0.18 0.12 0  0.2 0.12 0  0.22 0.12 0  0.24 0.12 0  0.26 0.12 0  0.28 0.12 0  0.3 0.12 0  0.32 0.12 0  0.34 0.12 0  0.36 0.12 0  0.38 0.12 0  0.4 0.12 0  0.42 0.12 0  0.44 0.12 0  0.46 0.12 0  0.48 0.12 0  0.5 0.12 0  0.52 0.12 0  0.54 0.12 0  0.5600000000000001 0.12 0  0.58 0.12 0  0.6 0.12 0  0.62 0.12 0  0.64 0.12 0  0.66 0.12 0  0.68 0.12 0  0.7 0.12 0  0.72 0.12 0  0.74 0.12 0  0.76 0.12 0  0.78 0.12 0  0.8 0.12 0  0.82 0.12 0  0.84 0.12 0  0.86 0.12 0  0.88 0.12 0  0.9 0.12 0  0.92 0.12 0  0.9399999999999999 0.12 0  0.96 0.12 0  0.98 0.12 0  1 0.12 0  1.02 0.12 0  1.04 0.12 0  1.06 0.12 0  1.08 0.12 0  1.1 0.12 0  1.12 0.12 0  1.14 0.12 0  1.16 0.12 0  1.18 0.12 0  1.2 0.12 0  1.22 0.12 0  1.24 0.12 0  1.26 0.12 0  1.28 0.12 0  1.3 0.12 0  1.32 0.12 0  1.34 0.12 0  1.36 0.12 0  1.38 0.12 0  1.4 0.12 0  1.42 0.12 0  1.44 0.12 0  1.46 0.12 0  1.48 0.12 0  1.5 0.12 0  1.52 0.12 0  1.54 0.12 0  1.56 0.12 0  1.58 0.12 0  1.6 0.12 0  1.62 0.12 0  1.64 0.12 0  1.66 0.12 0  1.68 0.12 0  1.7 0.12 0  1.72 0.12 0  1.74 0.12 0  1.76 0.12 0  1.78 0.12 0  1.8 0.12 0  1.82 0.12 0  1.84 0.12 0  1.86 0.12 0  1.88 0.12 0  1.9 0.12 0  1.92 0.12 0  1.94 0.12 0  1.96 0.12 0  1.98 0.12 0  2 0.12 0  0 0.14 0  0.02 0.14 0  0.04 0.14 0  0.06 0.14 0  0.08 0.14 0  0.1 0.14 0  0.12 0.14 0  0.14 0.14 0  0.16 0.14 0  0.18 0.14 0  0.2 0.14 0  0.22 0.14 0  0.24 0.14 0  0.26 0.14 0  0.28 0.14 0  0.3 0.14 0  0.32 0.14 0  0.34 0.14 0  0.36 0.14 0  0.38 0.14 0  0.4 0.14 0  0.42 0.14 0  0.44 0.14 0  0.46 0.14 0  0.48 0.14 0  0.5 0.14 0  0.52 0.14 0  0.54 0.14 0  0.5600000000000001 0.14 0  0.58 0.14 0  0.6 0.14 0  0.62 0.14 0  0.64 0.14 0  0.66 0.14 0  0.68 0.14 0  0.7 0.14 0  0.72 0.14 0  0.74 0.14 0  0.76 0.14 0  0.78 0.14 0  0.8 0.14 0  0.82 0.14 0  0.84 0.14 0  0.86 0.14 0  0.88 0.14 0  0.9 0.14 0  0.92 0.14 0  0.9399999999999999 0.14 0  0.96 0.14 0  0.98 0.14 0  1 0.14 0  1.02 0.14 0  1.04 0.14 0  1.06 0.14 0  1.08 0.14 0  1.1 0.14 0  1.12 0.14 0  1.14 0.14 0  1.16 0.14 0  1.18 0.14 0  1.2 0.14 0  1.22 0.14 0  1.24 0.14 0  1.26 0.14 0  1.28 0.14 0  1.3 0.14 0  1.32 0.14 0  1.34 0.14 0  1.36 0.14 0  1.38 0.14 0  1.4 0.14 0  1.42 0.14 0  1.44 0.14 0  1.46 0.14 0  1.48 0.14 0  1
[...]
<PointData  Scalars="sols[i]"> 
<DataArray  type="Float64"  Name="sols[i]"  format="ascii">2.3024955049478849e-01  1.6211523544073803e-01  1.6211516948864288e-01  1.6211504686385256e-01  1.6211484108237659e-01  1.6211451365987123e-01  1.6211401129237155e-01  1.6211326531489020e-01  1.6211219320626349e-01  1.6211070121817595e-01  1.6210868732891631e-01  1.6210604393210062e-01  1.6210265975173341e-01  1.6209842045750961e-01  1.6209320742726829e-01  1.6208689414050764e-01  1.6207933982383080e-01  1.6207038019901707e-01  1.6205981550916573e-01  1.6204739642765678e-01  1.6203280895641406e-01  1.6201566020883809e-01  1.6199546824373348e-01  1.6197166102482846e-01  1.6194358902699094e-01  1.6191055712766522e-01  1.6187187873400424e-01  1.6182695109907203e-01  1.6177534761221046e-01  1.6171691952628911e-01  1.6165189712543954e-01  1.6158097883776806e-01  1.6150539643185241e-01  1.6142694555226048e-01  1.6134797381743102e-01  1.6127132340922301e-01  1.6120023022019128e-01  1.6113818963367291e-01  1.6108881940131781e-01  1.6105569292630378e-01  1.6104216039037864e-01  1.6105123198270360e-01  1.6108546094362225e-01  1.6114685225165126e-01  1.6123679684691963e-01  1.6135602372061172e-01  1.6150456220125378e-01  1.6168171110529059e-01  1.6188602188206858e-01  1.6211531910705412e-01  1.6236678646423272e-01  1.6263712902294591e-01  1.6292278470129662e-01  1.6322010415095822e-01  1.6352538521368476e-01  1.6383469998500519e-01  1.6414368140818114e-01  1.6444756742859115e-01  1.6474156976209134e-01  1.6502128022423848e-01  1.6528270302275536e-01  1.6552212680096551e-01  1.6573630478702098e-01  1.6592246106969419e-01  1.6607802527831242e-01  1.6620134504041531e-01  1.6629351550485630e-01  1.6635937704286710e-01  1.6640663369484893e-01  1.6644515771491727e-01  1.6648857614893078e-01  1.6655699260934620e-01  1.6667763348748682e-01  1.6688129234438565e-01  1.6719470410285953e-01  1.6762982482095784e-01  1.6817020918211195e-01  1.6875598369825318e-01  1.6927738237494883e-01  1.6960091222117765e-01  1.6962832822243024e-01  1.6934540709579890e-01  1.6882952165656376e-01  1.6819678981313052e-01  1.6753688992332730e-01  1.6689043805483350e-01  1.6626411676860428e-01  1.6565456923623167e-01  1.6506367133899674e-01  1.6450241046795094e-01  1.6398705937205740e-01  1.6353310901196000e-01  1.6315077379891946e-01  1.6284326090402873e-01  1.6260729215959815e-01  1.6243484845734499e-01  1.6231528083442301e-01  1.6223730403481168e-01  1.6219070233323479e-01  1.6216775196431013e-01  3.4394897075619429e-01  1.6211523124602531e-01  8.3954326965472559e-02  8.3954679888090619e-02  8.3955326434351885e-02  8.3956359424879501e-02  8.3957894187047577e-02  8.3960069594972569e-02  8.3963044868200151e-02  8.3966992302044255e-02  8.3972088383488006e-02  8.3978505235431572e-02  8.3986403306848312e-02  8.3995925400289675e-02  8.4007191582716204e-02  8.4020294218174391e-02  8.4035292264631370e-02  8.4052204099344358e-02  8.4070998499946661e-02  8.4091584002549971e-02  8.4113797615521818e-02  8.4137394676706834e-02  8.4162042201533102e-02  8.4187318137182485e-02  8.4212718520235638e-02  8.4237673457423237e-02  8.4261572051732458e-02  8.4283795284749302e-02  8.4303754505292150e-02  8.4320932560313075e-02  8.4334923909497927e-02  8.4345469906432186e-02  8.4352485958477816e-02  8.4356078349479405e-02  8.4356549794376998e-02  8.4354393913967762e-02  8.4350279508114911e-02  8.4345025674278332e-02  8.4339568637389381e-02  8.4334924282276985e-02  8.4332153706433738e-02  8.4332315313382464e-02  8.4336420077245455e-02  8.4345396920561894e-02  8.4360064333859758e-02  8.4381111213593832e-02  8.4409084622423650e-02  8.4444379858264348e-02  8.4487227238411858e-02  8.4537672775531536e-02  8.4595559475154250e-02  8.4660524434991932e-02  8.4732026462265880e-02  8.4809406818316335e-02  8.4891956111945971e-02  8.4978930567341390e-02  8.5069466381679990e-02  8.5162458858979689e-02  8.5256557281957260e-02  8.5350315319950895e-02  8.5442355885409507e-02  8.5531323465778727e-02  8.5615783166703208e-02  8.5694352915997057e-02  8.5765688236993570e-02  8.5828173746014272e-02  8.5880048600264880e-02  8.5920226784486603e-02  8.5948989157134753e-02  8.5967839957875880e-02  8.5979207801516702e-02  8.5987004922349189e-02  8.5998003182467322e-02  8.6022821551149473e-02  8.6075700406052544e-02  8.6172623692476025e-02  8.6327279337175530e-02  8.6544552814997969e-02  8.6811200797048363e-02  8.7086079194821892e-02  8.7304338858879282e-02  8.7403554221592142e-02  8.7354537667077570e-02  8.7178466256386894e-02  8.6927014294740493e-02  8.6646813312359627e-02  8.6362594883092864e-02  8.6080848261312390e-02  8.5800757053019192e-02  8.5522609112194142e-02  8.5251143249994735e-02  8.4994597867058333e-02  8.4761860578909831e-02  8.4559873032573812e-02  8.4392273567814730e-02  8.4259286843173381e-02  8.4158424539048080e-02  8.4085517783766564e-02  8.4035738834073642e-02  8.4004445895319926e-02  8.3987846682841247e-02  1.6216682811289038e-01  1.6211515122597767e-01  8.3954678623219203e-02  8.3955214579080298e-02  8.3956152643222884e-02  8.3957571946771267e-02  8.3959556268304203e-02  8.3962194477579188e-02  8.3965583909909255e-02  8.3969830981701327e-02  8.3975048456090010e-02  8.3981350672999708e-02  8.3988848015631057e-02  8.3997641297237330e-02  8.4007816181468950e-02  8.4019437364248092e-02  8.4032542088749634e-02  8.4047132655449011e-02  8.4063167936431579e-02  8.4080554453114617e-02  8.4099138216724559e-02  8.4118699160519048e-02  8.4138950159038287e-02  8.4159542153840222e-02  8.4180076036283566e-02  8.4200120921244112e-02  8.4219237568447763e-02  8.4237005251562705e-02  8.4253049867896973e-02  8.4267071032789090e-02  8.4278865832116315e-02  8.4288347265883190e-02  8.4295556249756334e-02  8.4300667018570793e-02  8.4303986520784274e-02  8.4305948640491082e-02  8.4307103835335545e-02  8.4308104299531686e-02  8.4309684310443195e-02  8.4312635509847453e-02  8.4317781756004836e-02  8.4325954766248767e-02  8.4337960196781539e-02  8.4354548050666292e-02  8.4376391634967074e-02  8.4404073022474435e-02  8.4438070662717107e-02  8.4478744009749723e-02  8.4526309838715563e-02  8.4580809639220406e-02  8.4642083888710209e-02  8.4709777230971450e-02  8.4783390992674276e-02  8.4862382050226046e-02  8.4946261670444501e-02  8.5034602248944005e-02  8.5126869288990478e-02  8.5222233015004228e-02  8.5319621146566382e-02  8.5418014143619964e-02  8.5516690168138842e-02  8.5614968615275663e-02  8.5711882339902151e-02  8.5806454202981164e-02  8.5897787631127570e-02  8.5984485536895416e-02  8.6064280195591356e-02  8.6134545689675768e-02  8.6193438606509493e-02  8.6240689975807652e-02  8.6277604373394323e-02  8.6307034211171058e-02  8.6334649785560255e-02  8.6370159186988107e-02  8.6428063432259741e-02  8.6527554711622490e-02  8.6687629320585713e-02  8.6916356161851019e-02  8.7195808983286063e-02  8.7466069171334537e-02  8.7636919068562094e-02  8.7632720749081808e-02  8.7432975164569576e-02  8.7094889194298836e-02  8.6712969582093083e-02  8.6356660960662593e-02  8.6051016250027215e-02  8.5790534348758732e-02  8.5559160212399996e-02  8.5342857478762413e-02  8.5134782378154306e-02  8.4934958818964748e-02  8.4747411225227928e-02  8.4577176305300400e-02  8.4428282971778262e-02  8.4302875337636501e-02  8.4201216179933189e-02  8.4122179155821639e-02  8.4063885483360190e-02  8.4024292883688165e-02  8.4001772557934923e-02  1.6218555878740212e-01  1.6211499578795677e-01  8.3955321640554151e-02  8.3956148171684716e-02  8.3957511621914102e-02  8.3959459809325496e-02  8.3962038288197427e-02  8.3965284601586115e-02  8.3969233072564653e-02  8.3973921274764773e-02  8.3979393505031169e-02  8.3985700695419371e-02  8.3992897669888836e-02  8.4001038717093884e-02  8.4010172066963776e-02  8.4020333476463011e-02  8.4031538939416894e-02  8.4043776614523627e-02  8.4056998442076161e-02  8.4071112478167120e-02  8.4085977538533530e-02  8.4101402280395518e-02  8.4117150494283713e-02  8.4132953100882965e-02  8.4148525883293121e-02  8.4163590843165270e-02  8.4177898468214010e-02  8.4191248311213648e-02  8.4203505843661694e-02  8.4214614149769051e-02  8.4224599482275647e-02  8.4233570714778508e-02  8.4241714020609218e-02  8.4249285079196171e-02  8.4256601274381393e-02  8.4264035523636344e-02  8.4272011891586715e-02  8.4281001793060764e-02  8.4291518959340284e-02  8.4304109868811178e-02  8.4319341649381721e-02  8.4337794131011376e-02  8.4360039875962772e-02  8.4386624973278243e-02  8.4418056815314654e-02  8.4454797337770102e-02  8.4497253331360253e-02  8.4545755512854953e-02  8.4600519213755943e-02  8.4661587870988778e-02  8.4728794478368799e-02  8.4801782552007224e-02  8.4880105473540093e-02  8.4963403812706395e-02  8.5051580933574358e-02  8.5144809798741533e-02  8.5243201659879059e-02  8.5346480450123524e-02  8.5454126260217866e-02  8.5565888268288620e-02  8.5682217887905823e-02  8.5803708193989442e-02  8.5930251028436239e-02  8.6061263507459462e-02  8.6196009985547967e-02  8.6333248441230206e-02  8.6470043758394274e-02  8.6600661382127783e-02  8.6717786255772630e-02  8.6815825029206040e-02  8.6892857636301862e-02  8.6949979911538938e-02  8.6994089187419368e-02  8.7039914639685342e-02  8.7106406083047164e-02  8.7210162190561116e-02  8.7359572848892536e-02  8.7553441248971103e-02  8.7786366538838742e-02  8.8052759476022660e-02  8.8297262453093259e-02  8.8314462149051642e-02  8.7933047528257410e-02  8.7317456734434751e-02  8.6708641646314505e-02  8.6197230880697306e-02  8.5820056941952799e-02  8.5555675876629142e-02  8.5362285870745236e-02  8.5202716714843904e-02  8.5053995767669838e-02  8.4906699380905018e-02  8.4760225009502532e-02  8.4618182555392649e-02  8.4485238070715132e-02  8.4365417337948709e-02  8.4261494349593249e-02  8.4175039120331432e-02  8.4106781060588109e-02  8.4057112391483335e-02  8.4026808905570932e-02  1.6222223138596020e-01  1.6211472451910572e-01  8.3956345444930011e-02  8.3957554283244626e-02  8.3959442623333075e-02  8.3962002527656732e-02  8.3965235381233821e-02  8.3969133686948152e-02  8.3973680272875717e-02  8.3978855899433255e-02  8.3984646807410010e-02  8.3991048883695976e-02  8.3998068120332475e-02  8.4005718059343648e-02  8.4014014957708633e-02  8.4022971166126656e-02  8.4032587071589643e-02  8.4042842093928469e-02  8.4053685739717318e-02  8.4065030382037415e-02  8.4076747986237238e-02  8.4088673651231460e-02  8.4100617680837556e-02  8.4112385373450949e-02  8.4123801536458084e-02  8.4134735543216280e-02  8.4145122591756980e-02  8.4154977923543067e-02  8.4164402386904549e-02  8.4173578773048915e-02  8.4182759169420474e-02  8.4192245325339782e-02  8.4202365989126782e-02  8.4213456203428558e-02  8.4225843020236432e-02  8.4239839899377902e-02  8.4255748942327888e-02  8.4273867651708440e-02  8.4294496416020243e-02  8.4317943935963882e-02  8.4344535966343392e-02  8.4374615253556273e-02  8.4408520337781553e-02  8.4446590208673747e-02  8.4489167282888397e-02  8.4536603867228444e-02  8.4589260741880029e-02  8.4647482782513619e-02  8.4711538078330387e-02  8.4781521110865080e-02  8.4857296919721520e-02  8.4938556539066221e-02  8.5024992322561110e-02  8.5116603240355040e-02  8.5214010513206900e-02  8.5318486850582145e-02  8.5431316993070217e-02  8.5553269534951334e-02  8.5684958537924752e-02  8.5827515885957106e-02  8.5983102694296529e-02  8.6154057454027169e-02  8.6341564532761109e-02  8.6544866221243577e-02  8.6760851159506561e-02  8.6986040586285243e-02  8.7216532045635869e-02  8.7445456374362476e-02  8.7664270937056310e-02  8.7852154992736312e-02  8.7955938393761673e-02  8.7923555324347744e-02  8.7748376661286043e-02  8.7279380686143854e-02  8.6447991520064466e-02  8.5676969033963726e-02  8.4412079991635428e-02  8.2218854939409072e-02  7.9148814218392441e-02  7.7668356052708887e-02  8.0663857901857844e-02  8.5130511021081198e-02  8.7270594294061449e-02  8.7834172761495660e-02  8.6979678828048371e-02  8.6230613207837647e-02  8.5723359600508725e-02  8.5420467046249934e-02  8.5246643396253027e-02  8.5130529622921725e-02  8.5027790718997590e-02  8.4919298734607893e-02  8.4801398351355931e-02  8.4677710859367539e-02  8.4554174240092109e-02  8.4436552722367650e-02  8.4329468424658327e-02  8.4236282670771809e-02  8.4159432058318370e-02  8.4101029840094044e-02  8.4063719992886102e-02  1.6227969863964800e-01  1.6211428174433207e-01  8.3957858187601250e-02  8.3959505665970269e-02  8.3961975252568252e-02  8.3965179811841581e-02  8.3969069364382698e-02  8.3973597016919657e-02  8.3978707303337730e-02  8.3984340061788537e-02  8.3990439017173651e-02  8.3996958878024719e-02  8.4003868787266026e-02  8.4011151967874786e-02  8.4018802022026856e-02  8.4026816370076085e-02  8.4035187320268961e-02  8.4043891573861204e-02  8.4052879811315526e-02  8.4062068925135014e-02  8.4071340079774098e-02  8.4080547014503002e-02  8.4089536371483073e-02  8.4098177196006818e-02  8.4106393786976624e-02  8.4114195156081595e-02  8.4121695019115428e-02  8.4129118914381323e-02  8.4136797913178268e-02  8.4145149242291217e-02  8.4154644997645398e-02  8.4165772963036137e-02  8.4178996536219255e-02  8.4194721875099882e-02  8.4213278887334736e-02  8.4234918530410458e-02  8.4259823522316812e-02  8.4288125747549306e-02  8.4319922876088749e-02  8.4355288429421929e-02  8.4394309257106379e-02  8.4437136702983667e-02  8.4483880025251354e-02  8.4534666211222784e-02  8.4589681380652440e-02  8.4649195312806194e-02  8.4713579430175281e-02  8.4783286704279370e-02  8.4858764649534360e-02  8.4940292077517507e-02  8.5027908340048156e-02  8.5121550565069259e-02  8.5221345526300521e-02  8.5328076486460333e-02  8.5443683420553251e-02  8.5571370240664371e-02  8.5714389815002054e-02  8.5875184168214450e-02  8.6056343485135148e-02  8.6261250242315318e-02  8.6493572545034356e-02  8.6755621618900686e-02  8.7049231171987387e-02  8.7376316970954868e-02  8.7741171039842594e-02  8.8132909570233828e-02  8.8446493051297023e-02  8.8603590776981961e-02  8.8508429667353103e-02  8.7541843292164676e-02  8.6250071800523784e-02  8.3930409227652047e-02  7.9636320615575573e-02  7.0978329221499506e-02  5.3939032621796432e-02  2.4035831098772852e-02  1.8755190766385550e-02  4.6445010528757429e-02  1.4666450095947581e-01  2.0996114832065579e-01  1.0997737763240661e-01  3.1260688482579284e-02  5.9955747386496151e-02  8.5594837759060655e-02  8.7311294406685946e-02  8.6383784126166485e-02  8.5710776415857531e-02  8.5347955749192586e-02  8.5186046636455737e-02  8.5107682375884397e-02  8.5041547119706309e-02  8.4959889577309600e-02  8.4858887009031797e-02  8.4744352549116622e-02  8.4624444863788742e-02  8.4506630772744867e-02  8.4396764589353787e-02  8.4299154830110468e-02  8.4217131060500952e-02  8.4153824533208701e-02  8.4112801108707808e-02  1.6236048830206068e-01  1.6211359838304326e-01  8.3959985599886600e-02  8.3962072461053097e-02  8.3965121704635187e-02  8.3968951817580642e-02  8.3973453771592460e-02  8.3978543248466805e-02  8.3984136367098949e-02  8.3990146363192963e-02  8.3996490162163165e-02  8.4003096538214167e-02  8.4009911750987556e-02  8.4016901258914922e-02  8.4024047286020365e-02  8.4031342366542083e-02  8.4038779218519266e-02  8.4046337908877791e-02  8.4053972746549327e-02  8.4061602705745628e-02  8.4069109935897515e-02  8.4076353908692572e-02  8.4083203028760031e-02  8.4089577213056571e-02  8.4095491438661990e-02  8.4101090264488115e-02  8.4106665448760942e-02  8.4112654162613931e-02  8.4119619467616688e-02  8.4128214089607120e-02  8.4139128977247929e-02  8.4153032951237258e-02  8.4170514421312320e-02  8.4192037284574028e-02  8.4217920121845494e-02  8.4248340590705476e-02  8.4283358289878707e-02  8.4322944601633240e-02  8.4367008829439136e-02  8.4415411965618969e-02  8.4467986759834135e-02  8.4524671381836655e-02  8.4585426919552564e-02  8.4650183947960131e-02  8.4718997749873473e-02  8.4792113730038615e-02  8.4870024532801264e-02  8.4953473874760196e-02  8.5043346361349900e-02  8.5140394465356289e-02  8.5245170055412864e-02  8.5358345510035322e-02  8.5481195697644397e-02  8.5616207329438559e-02  8.5767582611252238e-02  8.5941414418712406e-02  8.6143542115633326e-02  8.6378014774241590e-02  8.6649058252723468e-02  8.6962938581353413e-02  8.7329326116917197e-02  8.7768434844995372e-02  8.8254189091662466e-02  8.8658740659869284e-02  8.8876436533168457e-02  8.8277378513874391e-02  8.6650332664123086e-02  8.3420778459453629e-02  7.6341650504475819e-02  5.9774177290679471e-02  3.5678591912548963e-02  2.7150182084885767e-02  7.1690905283985723e-02  2.0665813538696168e-01  4.2067695496586083e-01  6.7361699504502581e-01  8.4382859067506299e-01  8.8950791867278911e-01  8.8130505304854645e-01  8.7507767444081885e-01  8.8237897773666207e-01  8.8721832120643718e-01  8.0517937817232266e-01  3.2575215058390811e-01  1.9323272152089019e-01  1.7798481971480656e-01  1.2745094277587093e-01  8.5264919709631543e-02  8.5137236533577423e-02  8.5108161046913836e-02  8.5077773744326873e-02  8.5015033303569021e-02  8.4921505019003057e-02  8.4808494290086661e-02  8.4687666431752337e-02  8.4568264672796351e-02  8.4456885389298242e-02  8.4358131692885058e-02  8.4275631480049379e-02  8.4212960623619826e-02  8.4173435878376876e-02  1.6246527544694306e-01  1.6211260047853943e-01  8.3962865022071120e-02  8.3965323476676318e-02  8.3968880143120053e-02  8.3973257562085249e-02  8.3978281886846265e-02  8.3983830045867708e-02  8.3989794950863325e-02  8.3996073644490188e-02  8.4002569568270416e-02  8.4009199828303696e-02  8.4015901796206022e-02  8.4022636315717450e-02  8.4029386331870431e-02  8.4036150355072836e-02  8.4042930606930646e-02  8.4049716677993991e-02  8.4056468102340576e-02  8.4063101232880688e-02  8.4069486734587612e-02  8.4075471713470629e-02  8.4080927847006409e-02  8.4085812164808121e-02  8.4090224344644970e-02  8.4094446507423010e-02  8.4098955843324774e-02  8.4104410748043715e-02  8.4111616166680767e-02  8.4121468829969626e-02  8.4134882879311146e-02  8.4152705147004597e-02  8.4175636840993134e-02  8.4204179308429120e-02  8.4238616095704558e-02  8.4279031159929088e-02  8.4325349347407777e-02  8.4377380631776661e-02  8.4434856341283698e-02  8.4497455973536029e-02  8.4564834420816776e-02  8.4636692612528944e-02  8.4712840254793684e-02  8.4793127568472196e-02  8.4877586628620980e-02  8.4966581236124550e-02  8.5060950450510847e-02  8.5162078190285373e-02  8.5271779733692016e-02  8.5391831057929898e-02  8.5523939434526061e-02  8.5670399277308754e-02  8.5834832195994304e-02  8.6022931446771478e-02  8.6242222120600412e-02  8.6501556755523623e-02  8.6808146263965769e-02  8.7169802400533500e-02  8.7613529822429315e-02  8.8139984829761431e-02  8.8606040252528204e-02  8.8899851575532943e-02  8.8206619835534170e-02  8.5736869884432756e-02  8.0568365685768251e-02  6.8134649702060415e-02  4.8824108900531696e-02  3.7138828100323540e-02  1.2830425190676961e-01  3.3317568953799465e-01  6.2804086548140536e-01  8.2735996869710449e-01  8.8621936139624757e-01  8.7894548664680860e-01  8.6390961933605781e-01  8.5020927147821534e-01  8.3994546490143929e-01  8.2696910173999805e-01  8.1093144491108704e-01  8.0836245536813056e-01  8.2173545555640748e-01  8.4498597010993126e-01  8.8735329952773812e-01  8.1651024039327513e-01  6.3130515463751913e-01  5.5309749468275837e-01  5.2601556400711647e-01  1.6672742578572669e-01  8.5074457647766707e-02  8.5121507590719972e-02  8.5130281851666947e-02  8.5078998845751042e-02  8.4983466835016494e-02  8.4864608603648722e-02  8.4738773603549061e-02  8.4616839614036488e-02  8.4505590406897743e-02  8.4409339323159624e-02  8.4331541921691816e-02  8.4275745325476145e-02  8.4243812788950143e-02  1.6259178210770528e-01  1.6211122511869266e-01  8.3966634763873491e-02  8.3969324754050584e-02  8.3973240372041513e-02  8.3978022653425174e-02  8.3983431246541312e-02  8.3989301439445413e-02  8.3995504242834015e-02  8.4001926748093411e-02  8.4008468904368791e-02  8.4015048254976063e-02  8.4021606121330084e-02  8.4028111388985208e-02  8.4034559686013685e-02  8.4040966400447240e-02  8.4047352466449593e-02  8.4053723114547077e-02  8.4060044162277983e-02  8.4066222887865083e-02  8.4072101512623981e-02  8.4077491066550075e-02  8.40822445199