<?xml version="1.0"?>
<VTKFile type="UnstructuredGrid"  version="0.1"  >
<UnstructuredGrid>
<Piece  NumberOfPoints="5151" NumberOfCells="10000">
<Points>
<DataArray  type="Float64"  NumberOfComponents="3"  format="ascii">0 0 0  0.02 0 0  0.04 0 0  0.06 0 0  0.08 0 0  0.1 0 0  0.12 0 0  0.14 0 0  0.16 0 0  0.18 0 0  0.2 0 0  0.22 0 0  0.24 0 0  0.26 0 0  0.28 0 0  0.3 0 0  0.32 0 0  0.34 0 0  0.36 0 0  0.38 0 0  0.4 0 0  0.42 0 0  0.44 0 0  0.46 0 0  0.48 0 0  0.5 0 0  0.52 0 0  0.54 0 0  0.5600000000000001 0 0  0.58 0 0  0.6 0 0  0.62 0 0  0.64 0 0  0.66 0 0  0.68 0 0  0.7 0 0  0.72 0 0  0.74 0 0  0.76 0 0  0.78 0 0  0.8 0 0  0.82 0 0  0.84 0 0  0.86 0 0  0.88 0 0  0.9 0 0  0.92 0 0  0.9399999999999999 0 0  0.96 0 0  0.98 0 0  1 0 0  1.02 0 0  1.04 0 0  1.06 0 0  1.08 0 0  1.1 0 0  1.12 0 0  1.14 0 0  1.16 0 0  1.18 0 0  1.2 0 0  1.22 0 0  1.24 0 0  1.26 0 0  1.28 0 0  1.3 0 0  1.32 0 0  1.34 0 0  1.36 0 0  1.38 0 0  1.4 0 0  1.42 0 0  1.44 0 0  1.46 0 0  1.48 0 0  1.5 0 0  1.52 0 0  1.54 0 0  1.56 0 0  1.58 0 0  1.6 0 0  1.62 0 0  1.64 0 0  1.66 0 0  1.68 0 0  1.7 0 0  1.72 0 0  1.74 0 0  1.76 0 0  1.78 0 0  1.8 0 0  1.82 0 0  1.84 0 0  1.86 0 0  1.88 0 0  1.9 0 0  1.92 0 0  1.94 0 0  1.96 0 0  1.98 0 0  2 0 0  0 0.02 0  0.02 0.02 0  0.04 0.02 0  0.06 0.02 0  0.08 0.02 0  0.1 0.02 0  0.12 0.02 0  0.14 0.02 0  0.16 0.02 0  0.18 0.02 0  0.2 0.02 0  0.22 0.02 0  0.24 0.02 0  0.26 0.02 0  0.28 0.02 0  0.3 0.02 0  0.32 0.02 0  0.34 0.02 0  0.36 0.02 0  0.38 0.02 0  0.4 0.02 0  0.42 0.02 0  0.44 0.02 0  0.46 0.02 0  0.48 0.02 0  0.5 0.02 0  0.52 0.02 0  0.54 0.02 0  0.5600000000000001 0.02 0  0.58 0.02 0  0.6 0.02 0  0.62 0.02 0  0.64 0.02 0  0.66 0.02 0  0.68 0.02 0  0.7 0.02 0  0.72 0.02 0  0.74 0.02 0  0.76 0.02 0  0.78 0.02 0  0.8 0.02 0  0.82 0.02 0  0.84 0.02 0  0.86 0.02 0  0.88 0.02 0  0.9 0.02 0  0.92 0.02 0  0.9399999999999999 0.02 0  0.96 0.02 0  0.98 0.02 0  1 0.02 0  1.02 0.02 0  1.04 0.02 0  1.06 0.02 0  1.08 0.02 0  1.1 0.02 0  1.12 0.02 0  1.14 0.02 0  1.16 0.02 0  1.18 0.02 0  1.2 0.02 0  1.22 0.02 0  1.24 0.02 0  1.26 0.02 0  1.28 0.02 0  1.3 0.02 0  1.32 0.02 0  1.34 0.02 0  1.36 0.02 0  1.38 0.02 0  1.4 0.02 0  1.42 0.02 0  1.44 0.02 0  1.46 0.02 0  1.48 0.02 0  1.5 0.02 0  1.52 0.02 0  1.54 0.02 0  1.56 0.02 0  1.58 0.02 0  1.6 0.02 0  1.62 0.02 0  1.64 0.02 0  1.66 0.02 0  1.68 0.02 0  1.7 0.02 0  1.72 0.02 0  1.74 0.02 0  1.76 0.02 0  1.78 0.02 0  1.8 0.02 0  1.82 0.02 0  1.84 0.02 0  1.86 0.02 0  1.88 0.02 0  1.9 0.02 0  1.92 0.02 0  1.94 0.02 0  1.96 0.02 0  1.98 0.02 0  2 0.02 0  0 0.04 0  0.02 0.04 0  0.04 0.04 0  0.06 0.04 0  0.08 0.04 0  0.1 0.04 0  0.12 0.04 0  0.14 0.04 0  0.16 0.04 0  0.18 0.04 0  0.2 0.04 0  0.22 0.04 0  0.24 0.04 0  0.26 0.04 0  0.28 0.04 0  0.3 0.04 0  0.32 0.04 0  0.34 0.04 0  0.36 0.04 0  0.38 0.04 0  0.4 0.04 0  0.42 0.04 0  0.44 0.04 0  0.46 0.04 0  0.48 0.04 0  0.5 0.04 0  0.52 0.04 0  0.54 0.04 0  0.5600000000000001 0.04 0  0.58 0.04 0  0.6 0.04 0  0.62 0.04 0  0.64 0.04 0  0.66 0.04 0  0.68 0.04 0  0.7 0.04 0  0.72 0.04 0  0.74 0.04 0  0.76 0.04 0  0.78 0.04 0  0.8 0.04 0  0.82 0.04 0  0.84 0.04 0  0.86 0.04 0  0.88 0.04 0  0.9 0.04 0  0.92 0.04 0  0.9399999999999999 0.04 0  0.96 0.04 0  0.98 0.04 0  1 0.04 0  1.02 0.04 0  1.04 0.04 0  1.06 0.04 0  1.08 0.04 0  1.1 0.04 0  1.12 0.04 0  1.14 0.04 0  1.16 0.04 0  1.18 0.04 0  1.2 0.04 0  1.22 0.04 0  1.24 0.04 0  1.26 0.04 0  1.28 0.04 0  1.3 0.04 0  1.32 0.04 0  1.34 0.04 0  1.36 0.04 0  1.38 0.04 0  1.4 0.04 0  1.42 0.04 0  1.44 0.04 0  1.46 0.04 0  1.48 0.04 0  1.5 0.04 0  1.52 0.04 0  1.54 0.04 0  1.56 0.04 0  1.58 0.04 0  1.6 0.04 0  1.62 0.04 0  1.64 0.04 0  1.66 0.04 0  1.68 0.04 0  1.7 0.04 0  1.72 0.04 0  1.74 0.04 0  1.76 0.04 0  1.78 0.04 0  1.8 0.04 0  1.82 0.04 0  1.84 0.04 0  1.86 0.04 0  1.88 0.04 0  1.9 0.04 0  1.92 0.04 0  1.94 0.04 0  1.96 0.04 0  1.98 0.04 0  2 0.04 0  0 0.06 0  0.02 0.06 0  0.04 0.06 0  0.06 0.06 0  0.08 0.06 0  0.1 0.06 0  0.12 0.06 0  0.14 0.06 0  0.16 0.06 0  0.18 0.06 0  0.2 0.06 0  0.22 0.06 0  0.24 0.06 0  0.26 0.06 0  0.28 0.06 0  0.3 0.06 0  0.32 0.06 0  0.34 0.06 0  0.36 0.06 0  0.38 0.06 0  0.4 0.06 0  0.42 0.06 0  0.44 0.06 0  0.46 0.06 0  0.48 0.06 0  0.5 0.06 0  0.52 0.06 0  0.54 0.06 0  0.5600000000000001 0.06 0  0.58 0.06 0  0.6 0.06 0  0.62 0.06 0  0.64 0.06 0  0.66 0.06 0  0.68 0.06 0  0.7 0.06 0  0.72 0.06 0  0.74 0.06 0  0.76 0.06 0  0.78 0.06 0  0.8 0.06 0  0.82 0.06 0  0.84 0.06 0  0.86 0.06 0  0.88 0.06 0  0.9 0.06 0  0.92 0.06 0  0.9399999999999999 0.06 0  0.96 0.06 0  0.98 0.06 0  1 0.06 0  1.02 0.06 0  1.04 0.06 0  1.06 0.06 0  1.08 0.06 0  1.1 0.06 0  1.12 0.06 0  1.14 0.06 0  1.16 0.06 0  1.18 0.06 0  1.2 0.06 0  1.22 0.06 0  1.24 0.06 0  1.26 0.06 0  1.28 0.06 0  1.3 0.06 0  1.32 0.06 0  1.34 0.06 0  1.36 0.06 0  1.38 0.06 0  1.4 0.06 0  1.42 0.06 0  1.44 0.06 0  1.46 0.06 0  1.48 0.06 0  1.5 0.06 0  1.52 0.06 0  1.54 0.06 0  1.56 0.06 0  1.58 0.06 0  1.6 0.06 0  1.62 0.06 0  1.64 0.06 0  1.66 0.06 0  1.68 0.06 0  1.7 0.06 0  1.72 0.06 0  1.74 0.06 0  1.76 0.06 0  1.78 0.06 0  1.8 0.06 0  1.82 0.06 0  1.84 0.06 0  1.86 0.06 0  1.88 0.06 0  1.9 0.06 0  1.92 0.06 0  1.94 0.06 0  1.96 0.06 0  1.98 0.06 0  2 0.06 0  0 0.08 0  0.02 0.08 0  0.04 0.08 0  0.06 0.08 0  0.08 0.08 0  0.1 0.08 0  0.12 0.08 0  0.14 0.08 0  0.16 0.08 0  0.18 0.08 0  0.2 0.08 0  0.22 0.08 0  0.24 0.08 0  0.26 0.08 0  0.28 0.08 0  0.3 0.08 0  0.32 0.08 0  0.34 0.08 0  0.36 0.08 0  0.38 0.08 0  0.4 0.08 0  0.42 0.08 0  0.44 0.08 0  0.46 0.08 0  0.48 0.08 0  0.5 0.08 0  0.52 0.08 0  0.54 0.08 0  0.5600000000000001 0.08 0  0.58 0.08 0  0.6 0.08 0  0.62 0.08 0  0.64 0.08 0  0.66 0.08 0  0.68 0.08 0  0.7 0.08 0  0.72 0.08 0  0.74 0.08 0  0.76 0.08 0  0.78 0.08 0  0.8 0.08 0  0.82 0.08 0  0.84 0.08 0  0.86 0.08 0  0.88 0.08 0  0.9 0.08 0  0.92 0.08 0  0.9399999999999999 0.08 0  0.96 0.08 0  0.98 0.08 0  1 0.08 0  1.02 0.08 0  1.04 0.08 0  1.06 0.08 0  1.08 0.08 0  1.1 0.08 0  1.12 0.08 0  1.14 0.08 0  1.16 0.08 0  1.18 0.08 0  1.2 0.08 0  1.22 0.08 0  1.24 0.08 0  1.26 0.08 0  1.28 0.08 0  1.3 0.08 0  1.32 0.08 0  1.34 0.08 0  1.36 0.08 0  1.38 0.08 0  1.4 0.08 0  1.42 0.08 0  1.44 0.08 0  1.46 0.08 0  1.48 0.08 0  1.5 0.08 0  1.52 0.08 0  1.54 0.08 0  1.56 0.08 0  1.58 0.08 0  1.6 0.08 0  1.62 0.08 0  1.64 0.08 0  1.66 0.08 0  1.68 0.08 0  1.7 0.08 0  1.72 0.08 0  1.74 0.08 0  1.76 0.08 0  1.78 0.08 0  1.8 0.08 0  1.82 0.08 0  1.84 0.08 0  1.86 0.08 0  1.88 0.08 0  1.9 0.08 0  1.92 0.08 0  1.94 0.08 0  1.96 0.08 0  1.98 0.08 0  2 0.08 0  0 0.1 0  0.02 0.1 0  0.04 0.1 0  0.06 0.1 0  0.08 0.1 0  0.1 0.1 0  0.12 0.1 0  0.14 0.1 0  0.16 0.1 0  0.18 0.1 0  0.2 0.1 0  0.22 0.1 0  0.24 0.1 0  0.26 0.1 0  0.28 0.1 0  0.3 0.1 0  0.32 0.1 0  0.34 0.1 0  0.36 0.1 0  0.38 0.1 0  0.4 0.1 0  0.42 0.1 0  0.44 0.1 0  0.46 0.1 0  0.48 0.1 0  0.5 0.1 0  0.52 0.1 0  0.54 0.1 0  0.5600000000000001 0.1 0  0.58 0.1 0  0.6 0.1 0  0.62 0.1 0  0.64 0.1 0  0.66 0.1 0  0.68 0.1 0  0.7 0.1 0  0.72 0.1 0  0.74 0.1 0  0.76 0.1 0  0.78 0.1 0  0.8 0.1 0  0.82 0.1 0  0.84 0.1 0  0.86 0.1 0  0.88 0.1 0  0.9 0.1 0  0.92 0.1 0  0.9399999999999999 0.1 0  0.96 0.1 0  0.98 0.1 0  1 0.1 0  1.02 0.1 0  1.04 0.1 0  1.06 0.1 0  1.08 0.1 0  1.1 0.1 0  1.12 0.1 0  1.14 0.1 0  1.16 0.1 0  1.18 0.1 0  1.2 0.1 0  1.22 0.1 0  1.24 0.1 0  1.26 0.1 0  1.28 0.1 0  1.3 0.1 0  1.32 0.1 0  1.34 0.1 0  1.36 0.1 0  1.38 0.1 0  1.4 0.1 0  1.42 0.1 0  1.44 0.1 0  1.46 0.1 0  1.48 0.1 0  1.5 0.1 0  1.52 0.1 0  1.54 0.1 0  1.56 0.1 0  1.58 0.1 0  1.6 0.1 0  1.62 0.1 0  1.64 0.1 0  1.66 0.1 0  1.68 0.1 0  1.7 0.1 0  1.72 0.1 0  1.74 0.1 0  1.76 0.1 0  1.78 0.1 0  1.8 0.1 0  1.82 0.1 0  1.84 0.1 0  1.86 0.1 0  1.88 0.1 0  1.9 0.1 0  1.92 0.1 0  1.94 0.1 0  1.96 0.1 0  1.98 0.1 0  2 0.1 0  0 0.12 0  0.02 0.12 0  0.04 0.12 0  0.06 0.12 0  0.08 0.12 0  0.1 0.12 0  0.12 0.12 0  0.14 0.12 0  0.16 0.12 0  0.18 0.12 0  0.2 0.12 0  0.22 0.12 0  0.24 0.12 0  0.26 0.12 0  0.28 0.12 0  0.3 0.12 0  0.32 0.12 0  0.34 0.12 0  0.36 0.12 0  0.38 0.12 0  0.4 0.12 0  0.42 0.12 0  0.44 0.12 0  0.46 0.12 0  0.48 0.12 0  0.5 0.12 0  0.52 0.12 0  0.54 0.12 0  0.5600000000000001 0.12 0  0.58 0.12 0  0.6 0.12 0  0.62 0.12 0  0.64 0.12 0  0.66 0.12 0  0.68 0.12 0  0.7 0.12 0  0.72 0.12 0  0.74 0.12 0  0.76 0.12 0  0.78 0.12 0  0.8 0.12 0  0.82 0.12 0  0.84 0.12 0  0.86 0.12 0  0.88 0.12 0  0.9 0.12 0  0.92 0.12 0  0.9399999999999999 0.12 0  0.96 0.12 0  0.98 0.12 0  1 0.12 0  1.02 0.12 0  1.04 0.12 0  1.06 0.12 0  1.08 0.12 0  1.1 0.12 0  1.12 0.12 0  1.14 0.12 0  1.16 0.12 0  1.18 0.12 0  1.2 0.12 0  1.22 0.12 0  1.24 0.12 0  1.26 0.12 0  1.28 0.12 0  1.3 0.12 0  1.32 0.12 0  1.34 0.12 0  1.36 0.12 0  1.38 0.12 0  1.4 0.12 0  1.42 0.12 0  1.44 0.12 0  1.46 0.12 0  1.48 0.12 0  1.5 0.12 0  1.52 0.12 0  1.54 0.12 0  1.56 0.12 0  1.58 0.12 0  1.6 0.12 0  1.62 0.12 0  1.64 0.12 0  1.66 0.12 0  1.68 0.12 0  1.7 0.12 0  1.72 0.12 0  1.74 0.12 0  1.76 0.12 0  1.78 0.12 0  1.8 0.12 0  1.82 0.12 0  1.84 0.12 0  1.86 0.12 0  1.88 0.12 0  1.9 0.12 0  1.92 0.12 0  1.94 0.12 0  1.96 0.12 0  1.98 0.12 0  2 0.12 0  0 0.14 0  0.02 0.14 0  0.04 0.14 0  0.06 0.14 0  0.08 0.14 0  0.1 0.14 0  0.12 0.14 0  0.14 0.14 0  0.16 0.14 0  0.18 0.14 0  0.2 0.14 0  0.22 0.14 0  0.24 0.14 0  0.26 0.14 0  0.28 0.14 0  0.3 0.14 0  0.32 0.14 0  0.34 0.14 0  0.36 0.14 0  0.38 0.14 0  0.4 0.14 0  0.42 0.14 0  0.44 0.14 0  0.46 0.14 0  0.48 0.14 0  0.5 0.14 0  0.52 0.14 0  0.54 0.14 0  0.5600000000000001 0.14 0  0.58 0.14 0  0.6 0.14 0  0.62 0.14 0  0.64 0.14 0  0.66 0.14 0  0.68 0.14 0  0.7 0.14 0  0.72 0.14 0  0.74 0.14 0  0.76 0.14 0  0.78 0.14 0  0.8 0.14 0  0.82 0.14 0  0.84 0.14 0  0.86 0.14 0  0.88 0.14 0  0.9 0.14 0  0.92 0.14 0  0.9399999999999999 0.14 0  0.96 0.14 0  0.98 0.14 0  1 0.14 0  1.02 0.14 0  1.04 0.14 0  1.06 0.14 0  1.08 0.14 0  1.1 0.14 0  1.12 0.14 0  1.14 0.14 0  1.16 0.14 0  1.18 0.14 0  1.2 0.14 0  1.22 0.14 0  1.24 0.14 0  1.26 0.14 0  1.28 0.14 0  1.3 0.14 0  1.32 0.14 0  1.34 0.14 0  1.36 0.14 0  1.38 0.14 0  1.4 0.14 0  1.42 0.14 0  1.44 0.14 0  1.46 0.14 0  1.48 0.14 0  1
[...]
<PointData  Scalars="sols[i]"> 
<DataArray  type="Float64"  Name="sols[i]"  format="ascii">4.4328050065968105e-01  4.0976938579695499e-01  4.0977032335905395e-01  4.0977196594667925e-01  4.0977453593703089e-01  4.0977831762002948e-01  4.0978363347355284e-01  4.0979080591985428e-01  4.0980011878117362e-01  4.0981178274074515e-01  4.0982590498500121e-01  4.0984246244864253e-01  4.0986127842777886e-01  4.0988200304088968e-01  4.0990409896156643e-01  4.0992683500527449e-01  4.0994929151820608e-01  4.0997038307127276e-01  4.0998890566015217e-01  4.1000361735328539e-01  4.1001336292076512e-01  4.1001725407775164e-01  4.1001491703149018e-01  4.1000681719079946e-01  4.0999466600917100e-01  4.0998190551735758e-01  4.0997425059688930e-01  4.0998024629168839e-01  4.1001176755702723e-01  4.1008435435740764e-01  4.1021724208386101e-01  4.1043292590396058e-01  4.1075610031863985e-01  4.1121185282186334e-01  4.1182306723202877e-01  4.1260710096136022e-01  4.1357192164210699e-01  4.1471198965783007e-01  4.1600421732740389e-01  4.1740434497310708e-01  4.1884427998785384e-01  4.2023159852891423e-01  4.2145312502396703e-01  4.2238712198851153e-01  4.2293345684856481e-01  4.2306097496954559e-01  4.2283999979884501e-01  4.2242377473733467e-01  4.2200238814869773e-01  4.2174984291977929e-01  4.2177157409137717e-01  4.2206048283263226e-01  4.2250016939161045e-01  4.2291280686023947e-01  4.2311114196217325e-01  4.2294350745734122e-01  4.2233447778575145e-01  4.2130241490048448e-01  4.1994332394988909e-01  4.1839474187854153e-01  4.1680014258737030e-01  4.1528504019867296e-01  4.1394503373291069e-01  4.1284170199097531e-01  4.1200311723438277e-01  4.1142753542298749e-01  4.1108952826981215e-01  4.1094766602872601e-01  4.1095256270966118e-01  4.1105407402659133e-01  4.1120676078003254e-01  4.1137324807735293e-01  4.1152560765040680e-01  4.1164521188564779e-01  4.1172161588289086e-01  4.1175097017907847e-01  4.1173433474108712e-01  4.1167612249566177e-01  4.1158278494029898e-01  4.1146177377712700e-01  4.1132076674693419e-01  4.1116712359727792e-01  4.1100753048477440e-01  4.1084779151679829e-01  4.1069273041047666e-01  4.1054617100702728e-01  4.1041097138534788e-01  4.1028909198357399e-01  4.1018168322721460e-01  4.1008918262241284e-01  4.1001141512599476e-01  4.0994769387700153e-01  4.0989692102479347e-01  4.0985769022543228e-01  4.0982839303167790e-01  4.0980733050510199e-01  4.0979282923104510e-01  4.0978335951117084e-01  4.0977765476003353e-01  4.0977481905286711e-01  4.7793904859041325e-01  4.0976937841759603e-01  3.1087119682059072e-01  3.1087254498684225e-01  3.1087490687923447e-01  3.1087850498726516e-01  3.1088361809603121e-01  3.1089056818097599e-01  3.1089968521045341e-01  3.1091126448534412e-01  3.1092552475562407e-01  3.1094256995560432e-01  3.1096235548028817e-01  3.1098465956557542e-01  3.1100906076370505e-01  3.1103492345256356e-01  3.1106139464611138e-01  3.1108741698856179e-01  3.1111176463595763e-01  3.1113311065313976e-01  3.1115013642451761e-01  3.1116169512732228e-01  3.1116704212304486e-01  3.1116614454157621e-01  3.1116007944847701e-01  3.1115152359725629e-01  3.1114532646292492e-01  3.1114914064364563e-01  3.1117405892296990e-01  3.1123517567052228e-01  3.1135195432716839e-01  3.1154824784345131e-01  3.1185179348541603e-01  3.1229299796817145e-01  3.1290285460818112e-01  3.1370990060926496e-01  3.1473623365794290e-01  3.1599275314527175e-01  3.1747393757335879e-01  3.1915255733692138e-01  3.2097474830466843e-01  3.2285611122514507e-01  3.2468021461274654e-01  3.2630127819307730e-01  3.2755682031765221e-01  3.2830584211343200e-01  3.2849301018141974e-01  3.2819566270929224e-01  3.2760557165766790e-01  3.2697628936908396e-01  3.2655971669953032e-01  3.2653088970928917e-01  3.2691586671078487e-01  3.2757928040024253e-01  3.2828483245286855e-01  3.2877029524819934e-01  3.2881073243273806e-01  3.2827491796537744e-01  3.2715350817232630e-01  3.2554418506441235e-01  3.2360992077542933e-01  3.2153406213845037e-01  3.1948673056430771e-01  3.1760546484610463e-01  3.1598683731169841e-01  3.1468496164742210e-01  3.1371454597973569e-01  3.1305751677785765e-01  3.1267218335353830e-01  3.1250328827254337e-01  3.1249120162715061e-01  3.1257909796787653e-01  3.1271770542327204e-01  3.1286777059552340e-01  3.1300068225165695e-01  3.1309780492130446e-01  3.1314905267428206e-01  3.1315113539605588e-01  3.1310578257621724e-01  3.1301812952248248e-01  3.1289535701815818e-01  3.1274561156036923e-01  3.1257719484313273e-01  3.1239799098292625e-01  3.1221509171204459e-01  3.1203457865811324e-01  3.1186142474664336e-01  3.1169948173237672e-01  3.1155152667820407e-01  3.1141934613709182e-01  3.1130384243649112e-01  3.1120515158421336e-01  3.1112276675452055e-01  3.1105566488539715e-01  3.1100243625594520e-01  3.1096141734993016e-01  3.1093082499355096e-01  3.1090888469411637e-01  3.1089394265694759e-01  3.1088456324414393e-01  3.1087961704701172e-01  4.0977479088675328e-01  4.0977029123605885e-01  3.1087251278817013e-01  3.1087439079654516e-01  3.1087749936719611e-01  3.1088193106057227e-01  3.1088777526498523e-01  3.1089512514372397e-01  3.1090407691396560e-01  3.1091471290965506e-01  3.1092707547865295e-01  3.1094113904077014e-01  3.1095678497608359e-01  3.1097378217403804e-01  3.1099177542953849e-01  3.1101028409773890e-01  3.1102871417307543e-01  3.1104638799278816e-01  3.1106259689945048e-01  3.1107668326509408e-01  3.1108815908464960e-01  3.1109686861845443e-01  3.1110320192182406e-01  3.1110836402175618e-01  3.1111470030787325e-01  3.1112607158756289e-01  3.1114826138344653e-01  3.1118938281740871e-01  3.1126023288460669e-01  3.1137451943069805e-01  3.1154886410414384e-01  3.1180246892697416e-01  3.1215633317362163e-01  3.1263192969178155e-01  3.1324930074862212e-01  3.1402460833209150e-01  3.1496725267288073e-01  3.1607672185292268e-01  3.1733932501909101e-01  3.1872490337958509e-01  3.2018362130440337e-01  3.2164337684978095e-01  3.2300891051759206e-01  3.2416184510612256e-01  3.2496759503971506e-01  3.2531517853639003e-01  3.2518605041092263e-01  3.2468542043934279e-01  3.2399423289226381e-01  3.2332619709766519e-01  3.2290290009143230e-01  3.2289200947939978e-01  3.2332969596283667e-01  3.2410162158247485e-01  3.2499402990531934e-01  3.2575885674698790e-01  3.2617321794110032e-01  3.2609831142217649e-01  3.2550868158200741e-01  3.2447106877432652e-01  3.2310459290533067e-01  3.2154595418708581e-01  3.1992603885791504e-01  3.1835638640822289e-01  3.1692265013030357e-01  3.1568250650668461e-01  3.1466638409864889e-01  3.1388029886391400e-01  3.1331043031610872e-01  3.1292887648124590e-01  3.1269973184470751e-01  3.1258459426753182e-01  3.1254686334524201e-01  3.1255457888910082e-01  3.1258188565446032e-01  3.1260940928245418e-01  3.1262388852973566e-01  3.1261737647679078e-01  3.1258625039266041e-01  3.1253019273416477e-01  3.1245124195504542e-01  3.1235296560371545e-01  3.1223977731985031e-01  3.1211639978650763e-01  3.1198746391810284e-01  3.1185722805079930e-01  3.1172939799169297e-01  3.1160702836328091e-01  3.1149248694635878e-01  3.1138746605766054e-01  3.1129302789873714e-01  3.1120967386058757e-01  3.1113743057168008e-01  3.1107594758771917e-01  3.1102460244735464e-01  3.1098260761852414e-01  3.1094911014302490e-01  3.1092326985853391e-01  3.1090430345311604e-01  3.1089151335443305e-01  3.1088435924733332e-01  4.0977749843496736e-01  4.0977187562353351e-01  3.1087479519824573e-01  3.1087741278460440e-01  3.1088148772481106e-01  3.1088695997537852e-01  3.1089374943675829e-01  3.1090174807705112e-01  3.1091083567920041e-01  3.1092088719443323e-01  3.1093176695473446e-01  3.1094331594072605e-01  3.1095533889763605e-01  3.1096759644592825e-01  3.1097980603624092e-01  3.1099165507226589e-01  3.1100282958215986e-01  3.1101306217648417e-01  3.1102220342810716e-01  3.1103032101071793e-01  3.1103783069009394e-01  3.1104566229035119e-01  3.1105546170617548e-01  3.1106982648189907e-01  3.1109256695788734e-01  3.1112897703757925e-01  3.1118608796547442e-01  3.1127286527734366e-01  3.1140029430915350e-01  3.1158128576685790e-01  3.1183032423942258e-01  3.1216278560304606e-01  3.1259387153941010e-01  3.1313715662529329e-01  3.1380281401649601e-01  3.1459566240758680e-01  3.1551321887219169e-01  3.1654388689513008e-01  3.1766520779750490e-01  3.1884183186991910e-01  3.2002290572551140e-01  3.2113976042736303e-01  3.2210560976200214e-01  3.2281248839498805e-01  3.2313374152289231e-01  3.2297839222637637e-01  3.2237704196596684e-01  3.2150503942328917e-01  3.2057832189944502e-01  3.1977940347287370e-01  3.1929706243037259e-01  3.1928300421896016e-01  3.1978910787707415e-01  3.2075199327903520e-01  3.2200182271027827e-01  3.2328979040818323e-01  3.2434089065575616e-01  3.2493104989325960e-01  3.2497812848175356e-01  3.2452208541832089e-01  3.2366492248620360e-01  3.2252632681446974e-01  3.2122115514707017e-01  3.1984994468194855e-01  3.1849588226448211e-01  3.1722424114727543e-01  3.1608230084623257e-01  3.1509947441821384e-01  3.1428822292713254e-01  3.1364622616048493e-01  3.1315971168613210e-01  3.1280737332095765e-01  3.1256418306322281e-01  3.1240456707442077e-01  3.1230469825309293e-01  3.1224390401224833e-01  3.1220533316948917e-01  3.1217607584314350e-01  3.1214692045827896e-01  3.1211189710026299e-01  3.1206771799511446e-01  3.1201319287061957e-01  3.1194867112611413e-01  3.1187554310607418e-01  3.1179581794442413e-01  3.1171178441987635e-01  3.1162575340713594e-01  3.1153987536438177e-01  3.1145602341723361e-01  3.1137573149219977e-01  3.1130017708343571e-01  3.1123019903992571e-01  3.1116634164654478e-01  3.1110891663800516e-01  3.1105807410728958e-01  3.1101387145761100e-01  3.1097632778322559e-01  3.1094545315788330e-01  3.1092125612826871e-01  3.1090377791146551e-01  3.1089325971579540e-01  4.0978290252360194e-01  4.0977432615439424e-01  3.1087822868773374e-01  3.1088166314749321e-01  3.1088676834309326e-01  3.1089329610774491e-01  3.1090102079074222e-01  3.1090969092322418e-01  3.1091903273179955e-01  3.1092876705687833e-01  3.1093862041160619e-01  3.1094832878424089e-01  3.1095763920953634e-01  3.1096631504969396e-01  3.1097415016673541e-01  3.1098099634199428e-01  3.1098680779583598e-01  3.1099170639011675e-01  3.1099607081778119e-01  3.1100065252473164e-01  3.1100671998172796e-01  3.1101623092089292e-01  3.1103202893936222e-01  3.1105805610360626e-01  3.1109956654644455e-01  3.1116331735380481e-01  3.1125770243975470e-01  3.1139278339704501e-01  3.1158016035605762e-01  3.1183261911729265e-01  3.1216349354995171e-01  3.1258570136205355e-01  3.1311045371176505e-01  3.1374570772686061e-01  3.1449451782748156e-01  3.1535351678148871e-01  3.1631175451705618e-01  3.1734993061213956e-01  3.1843955259479578e-01  3.1954081338398965e-01  3.2059795030938443e-01  3.2153424581000845e-01  3.2225189749440852e-01  3.2262389788913470e-01  3.2249674505613574e-01  3.2179562623654434e-01  3.2062816747225831e-01  3.1927281363264176e-01  3.1803003084907805e-01  3.8459752410607545e-01  4.1758726535543078e-01  4.1756680571677407e-01  4.1835153105086054e-01  3.8610880887189353e-01  3.1990237503285457e-01  3.2190534379641689e-01  3.2386493397351812e-01  3.2533527064018786e-01  3.2608137851217300e-01  3.2611393855139958e-01  3.2557008855198621e-01  3.2461317459864875e-01  3.2338838823652005e-01  3.2201196131635329e-01  3.2057516976571798e-01  3.1915120796540308e-01  3.1779922846495540e-01  3.1656494780863587e-01  3.1547971508450351e-01  3.1456004579588293e-01  3.1380862599328196e-01  3.1321676031924378e-01  3.1276765465301115e-01  3.1243981490540440e-01  3.1221002297221784e-01  3.1205561648328761e-01  3.1195602205294559e-01  3.1189362676686150e-01  3.1185412881729524e-01  3.1182651438943987e-01  3.1180279017556001e-01  3.1177757550143437e-01  3.1174763278635720e-01  3.1171139278487142e-01  3.1166851245900495e-01  3.1161948836346709e-01  3.1156533686352972e-01  3.1150734403791774e-01  3.1144688234570572e-01  3.1138528755087269e-01  3.1132378740514849e-01  3.1126347253719328e-01  3.1120529923366053e-01  3.1115011281182625e-01  3.1109867903201660e-01  3.1105171060818604e-01  3.1100987962991844e-01  3.1097382001234181e-01  3.1094414975906848e-01  3.1092157929932107e-01  3.1090719445652626e-01  4.0979174558628451e-01  4.0977788564080248e-01  3.1088303937261985e-01  3.1088718448350933e-01  3.1089321976932638e-01  3.1090067833535379e-01  3.1090918943972840e-01  3.1091839768938762e-01  3.1092793465810353e-01  3.1093742672738267e-01  3.1094651337772461e-01  3.1095486448435483e-01  3.1096219624045185e-01  3.1096829016897254e-01  3.1097302070838356e-01  3.1097639644817310e-01  3.1097861938214633e-01  3.1098016583160409e-01  3.1098189186840275e-01  3.1098516489194195e-01  3.1099202118421976e-01  3.1100534646283551e-01  3.1102907234896232e-01  3.1106837596869297e-01  3.1112986241115898e-01  3.1122170050693426e-01  3.1135367186047624e-01  3.1153708257818713e-01  3.1178447924524177e-01  3.1210910968021749e-01  3.1252408094787265e-01  3.1304119938838304e-01  3.1366953649220419e-01  3.1441385127400889e-01  3.1527310140671033e-01  3.1623935057104002e-01  3.1729733516664749e-01  3.1842461031927871e-01  3.1959127559613409e-01  3.2075664055560099e-01  3.2185914811493499e-01  3.2280270283333989e-01  3.2345347546621850e-01  3.2362071395506342e-01  3.2306725056211760e-01  3.2173975554437745e-01  3.1990570647735916e-01  3.8582897827573531e-01  4.1751444455893083e-01  4.4964596448854616e-01  5.1749777224142168e-01  5.1751684426304467e-01  5.1850243534997975e-01  5.2058045271991005e-01  4.5490272490313727e-01  3.9064510398068725e-01  3.2488091689436593e-01  3.2752967231290520e-01  3.2906304203376591e-01  3.2945146819216953e-01  3.2894500999340126e-01  3.2784701839660169e-01  3.2640150392057232e-01  3.2477305459916028e-01  3.2306850170991502e-01  3.2136339103881817e-01  3.1971825274189386e-01  3.1818388713041801e-01  3.1680040775416485e-01  3.1559476987794760e-01  3.1457953864824528e-01  3.1375371987975159e-01  3.1310527760331130e-01  3.1261450405862046e-01  3.1225744357662510e-01  3.1200883318743111e-01  3.1184431399399309e-01  3.1174188688909599e-01  3.1168271109500345e-01  3.1165139335509423e-01  3.1163591843716565e-01  3.1162735178256029e-01  3.1161941774708002e-01  3.1160802978400032e-01  3.1159082541637445e-01  3.1156673985556171e-01  3.1153563751186086e-01  3.1149800987897380e-01  3.1145474069499446e-01  3.1140693418279491e-01  3.1135579883223785e-01  3.1130257690903368e-01  3.1124850808561361e-01  3.1119481408353544e-01  3.1114269069177486e-01  3.1109329645612344e-01  3.1104773865928115e-01  3.1100708193033538e-01  3.1097243503651922e-01  3.1094516655637916e-01  3.1092719610275621e-01  4.0980503266743351e-01  4.0978282066605159e-01  3.1088948306955777e-01  3.1089402423509604e-01  3.1090070691761196e-01  3.1090884473486752e-01  3.1091790502802341e-01  3.1092743984079618e-01  3.1093702290973158e-01  3.1094623388165216e-01  3.1095467186986109e-01  3.1096197957094601e-01  3.1096787064188597e-01  3.1097216134654582e-01  3.1097481094007917e-01  3.1097597593593390e-01  3.1097608293856865e-01  3.1097592384436706e-01  3.1097677604013091e-01  3.1098054860458124e-01  3.1098995316906758e-01  3.1100869470352338e-01  3.1104167275406169e-01  3.1109517731652292e-01  3.1117705548234120e-01  3.1129681544439736e-01  3.1146562417561752e-01  3.1169614580692279e-01  3.1200216253589946e-01  3.1239792367094243e-01  3.1289718784291276e-01  3.1351196615777804e-01  3.1425104630296669e-01  3.1511847898123313e-01  3.1611232228342107e-01  3.1722401749820850e-01  3.1843869527548962e-01  3.1973623254708250e-01  3.2109151037410261e-01  3.2246944223282664e-01  3.2380688555211612e-01  3.2498174129746976e-01  3.2579045670806545e-01  3.2588830694250248e-01  3.2487776101978255e-01  3.2275890603599539e-01  3.8839687100597586e-01  4.5272447194247234e-01  5.1848882202003699e-01  5.1621077392553416e-01  5.1527304507811200e-01  5.1481030393104321e-01  5.1595960739523317e-01  5.1722195409394522e-01  5.2195981101640987e-01  5.2911789935532816e-01  4.3311981919843867e-01  3.3198835128954118e-01  3.3445403169333299e-01  3.3499529003303985e-01  3.3412993571831140e-01  3.3244306894929060e-01  3.3037679543514503e-01  3.2818307686670622e-01  3.2598508227706452e-01  3.2384638717410841e-01  3.2181164183531374e-01  3.1992113017797408e-01  3.1821099065483216e-01  3.1670874824687162e-01  3.1542950071879960e-01  3.1437470031642184e-01  3.1353347892784655e-01  3.1288560756494560e-01  3.1240504937153568e-01  3.1206330513626718e-01  3.1183210023223457e-01  3.1168526357477244e-01  3.1159984491335990e-01  3.1155661323156181e-01  3.1154010553457701e-01  3.1153838223263020e-01  3.1154261544527861e-01  3.1154660364225240e-01  3.1154627679795499e-01  3.1153923291408936e-01  3.1152432933089647e-01  3.1150133978059069e-01  3.1147067951434027e-01  3.1143319500314603e-01  3.1139001076330264e-01  3.1134242306515508e-01  3.1129182823412449e-01  3.1123967216234011e-01  3.1118740899836894e-01  3.1113646437972536e-01  3.1108821774979251e-01  3.1104405166996618e-01  3.1100553946806619e-01  3.1097475568715360e-01  3.1095434088393126e-01  4.0982389125374807e-01  4.0978938537053072e-01  3.1089781340181866e-01  3.1090224074890360e-01  3.1090910665755916e-01  3.1091754673594574e-01  3.1092684669523946e-01  3.1093645644459500e-01  3.1094590482615148e-01  3.1095475360908859e-01  3.1096259616650745e-01  3.1096908038298232e-01  3.1097394250345223e-01  3.1097704861909903e-01  3.1097844617487946e-01  3.1097842997400210e-01  3.1097762732067763e-01  3.1097710619817331e-01  3.1097850908034252e-01  3.1098421309033186e-01  3.1099751453247926e-01  3.1102283204851189e-01  3.1106591750702672e-01  3.1113405702913643e-01  3.1123623627897345e-01  3.1138323467687989e-01  3.1158760355001158e-01  3.1186347547341564e-01  3.1222614968721113e-01  3.1269140680186114e-01  3.1327453202703320e-01  3.1398907757935091e-01  3.1484547743195473e-01  3.1584973937168892e-01  3.1700256092202256e-01  3.1829928960191833e-01  3.1973103383911250e-01  3.2128660044570423e-01  3.2295306946072977e-01  3.2470852874244149e-01  3.2649411163923520e-01  3.2816324416724219e-01  3.2941766416810114e-01  3.2958418847226223e-01  3.2790650175152369e-01  3.9446698599070373e-01  4.5637510304363010e-01  5.1935059112411519e-01  5.1659543173302636e-01  5.1198758684844370e-01  5.1198758684911705e-01  5.1198758684991996e-01  5.1198758684878132e-01  5.1198758685093881e-01  5.1198758685112589e-01  5.2252850925270511e-01  5.3677271695140394e-01  4.4936835323997415e-01  3.4317639449475557e-01  3.4353826949224298e-01  3.4170921914311508e-01  3.3880012553988192e-01  3.3557015165935655e-01  3.3240029916539976e-01  3.2942004208169257e-01  3.2665462007907514e-01  3.2410698708069619e-01  3.2178603854264831e-01  3.1970807639286858e-01  3.1788948349308155e-01  3.1633945715783823e-01  3.1505600022444269e-01  3.1402543612365696e-01  3.1322445699617607e-01  3.1262341398206528e-01  3.1218976979059365e-01  3.1189103895102321e-01  3.1169692482502354e-01  3.1158063137375963e-01  3.1151947609455038e-01  3.1149498542599352e-01  3.1149265053116471e-01  3.1150149009646932e-01  3.1151352808103100e-01  3.1152325907619771e-01  3.1152714611759091e-01  3.1152317566505400e-01  3.1151048068606002e-01  3.1148903366519110e-01  3.1145940542431394e-01  3.1142258172878734e-01  3.1137982702081973e-01  3.1133258303462830e-01  3.1128239015353099e-01  3.1123082333128016e-01  3.1117944658433905e-01  3.1112981608562623e-01  3.1108359955125614e-01  3.1104288306012068e-01  3.1101052113861505e-01  3.1098963593252049e-01  4.0984942396068885e-01  4.0979778898220448e-01  3.1090824603951994e-01  3.1091189272509351e-01  3.1091832125844021e-01  3.1092657126274037e-01  3.1093573397674557e-01  3.1094513753905290e-01  3.1095426120039638e-01  3.1096265962307834e-01  3.1096994046458815e-01  3.1097577900920498e-01  3.1097995286269919e-01  3.1098238939873935e-01  3.1098322578859872e-01  3.1098288487042625e-01  3.1098217109423421e-01  3.1098239040528186e-01  3.1098549671674441e-01  3.1099426566271393e-01  3.1101249347270149e-01  3.1104521483388603e-01  3.11098928278