<?xml version="1.0"?>
<VTKFile type="UnstructuredGrid"  version="0.1"  >
<UnstructuredGrid>
<Piece  NumberOfPoints="5151" NumberOfCells="10000">
<Points>
<DataArray  type="Float64"  NumberOfComponents="3"  format="ascii">0 0 0  0.02 0 0  0.04 0 0  0.06 0 0  0.08 0 0  0.1 0 0  0.12 0 0  0.14 0 0  0.16 0 0  0.18 0 0  0.2 0 0  0.22 0 0  0.24 0 0  0.26 0 0  0.28 0 0  0.3 0 0  0.32 0 0  0.34 0 0  0.36 0 0  0.38 0 0  0.4 0 0  0.42 0 0  0.44 0 0  0.46 0 0  0.48 0 0  0.5 0 0  0.52 0 0  0.54 0 0  0.5600000000000001 0 0  0.58 0 0  0.6 0 0  0.62 0 0  0.64 0 0  0.66 0 0  0.68 0 0  0.7 0 0  0.72 0 0  0.74 0 0  0.76 0 0  0.78 0 0  0.8 0 0  0.82 0 0  0.84 0 0  0.86 0 0  0.88 0 0  0.9 0 0  0.92 0 0  0.9399999999999999 0 0  0.96 0 0  0.98 0 0  1 0 0  1.02 0 0  1.04 0 0  1.06 0 0  1.08 0 0  1.1 0 0  1.12 0 0  1.14 0 0  1.16 0 0  1.18 0 0  1.2 0 0  1.22 0 0  1.24 0 0  1.26 0 0  1.28 0 0  1.3 0 0  1.32 0 0  1.34 0 0  1.36 0 0  1.38 0 0  1.4 0 0  1.42 0 0  1.44 0 0  1.46 0 0  1.48 0 0  1.5 0 0  1.52 0 0  1.54 0 0  1.56 0 0  1.58 0 0  1.6 0 0  1.62 0 0  1.64 0 0  1.66 0 0  1.68 0 0  1.7 0 0  1.72 0 0  1.74 0 0  1.76 0 0  1.78 0 0  1.8 0 0  1.82 0 0  1.84 0 0  1.86 0 0  1.88 0 0  1.9 0 0  1.92 0 0  1.94 0 0  1.96 0 0  1.98 0 0  2 0 0  0 0.02 0  0.02 0.02 0  0.04 0.02 0  0.06 0.02 0  0.08 0.02 0  0.1 0.02 0  0.12 0.02 0  0.14 0.02 0  0.16 0.02 0  0.18 0.02 0  0.2 0.02 0  0.22 0.02 0  0.24 0.02 0  0.26 0.02 0  0.28 0.02 0  0.3 0.02 0  0.32 0.02 0  0.34 0.02 0  0.36 0.02 0  0.38 0.02 0  0.4 0.02 0  0.42 0.02 0  0.44 0.02 0  0.46 0.02 0  0.48 0.02 0  0.5 0.02 0  0.52 0.02 0  0.54 0.02 0  0.5600000000000001 0.02 0  0.58 0.02 0  0.6 0.02 0  0.62 0.02 0  0.64 0.02 0  0.66 0.02 0  0.68 0.02 0  0.7 0.02 0  0.72 0.02 0  0.74 0.02 0  0.76 0.02 0  0.78 0.02 0  0.8 0.02 0  0.82 0.02 0  0.84 0.02 0  0.86 0.02 0  0.88 0.02 0  0.9 0.02 0  0.92 0.02 0  0.9399999999999999 0.02 0  0.96 0.02 0  0.98 0.02 0  1 0.02 0  1.02 0.02 0  1.04 0.02 0  1.06 0.02 0  1.08 0.02 0  1.1 0.02 0  1.12 0.02 0  1.14 0.02 0  1.16 0.02 0  1.18 0.02 0  1.2 0.02 0  1.22 0.02 0  1.24 0.02 0  1.26 0.02 0  1.28 0.02 0  1.3 0.02 0  1.32 0.02 0  1.34 0.02 0  1.36 0.02 0  1.38 0.02 0  1.4 0.02 0  1.42 0.02 0  1.44 0.02 0  1.46 0.02 0  1.48 0.02 0  1.5 0.02 0  1.52 0.02 0  1.54 0.02 0  1.56 0.02 0  1.58 0.02 0  1.6 0.02 0  1.62 0.02 0  1.64 0.02 0  1.66 0.02 0  1.68 0.02 0  1.7 0.02 0  1.72 0.02 0  1.74 0.02 0  1.76 0.02 0  1.78 0.02 0  1.8 0.02 0  1.82 0.02 0  1.84 0.02 0  1.86 0.02 0  1.88 0.02 0  1.9 0.02 0  1.92 0.02 0  1.94 0.02 0  1.96 0.02 0  1.98 0.02 0  2 0.02 0  0 0.04 0  0.02 0.04 0  0.04 0.04 0  0.06 0.04 0  0.08 0.04 0  0.1 0.04 0  0.12 0.04 0  0.14 0.04 0  0.16 0.04 0  0.18 0.04 0  0.2 0.04 0  0.22 0.04 0  0.24 0.04 0  0.26 0.04 0  0.28 0.04 0  0.3 0.04 0  0.32 0.04 0  0.34 0.04 0  0.36 0.04 0  0.38 0.04 0  0.4 0.04 0  0.42 0.04 0  0.44 0.04 0  0.46 0.04 0  0.48 0.04 0  0.5 0.04 0  0.52 0.04 0  0.54 0.04 0  0.5600000000000001 0.04 0  0.58 0.04 0  0.6 0.04 0  0.62 0.04 0  0.64 0.04 0  0.66 0.04 0  0.68 0.04 0  0.7 0.04 0  0.72 0.04 0  0.74 0.04 0  0.76 0.04 0  0.78 0.04 0  0.8 0.04 0  0.82 0.04 0  0.84 0.04 0  0.86 0.04 0  0.88 0.04 0  0.9 0.04 0  0.92 0.04 0  0.9399999999999999 0.04 0  0.96 0.04 0  0.98 0.04 0  1 0.04 0  1.02 0.04 0  1.04 0.04 0  1.06 0.04 0  1.08 0.04 0  1.1 0.04 0  1.12 0.04 0  1.14 0.04 0  1.16 0.04 0  1.18 0.04 0  1.2 0.04 0  1.22 0.04 0  1.24 0.04 0  1.26 0.04 0  1.28 0.04 0  1.3 0.04 0  1.32 0.04 0  1.34 0.04 0  1.36 0.04 0  1.38 0.04 0  1.4 0.04 0  1.42 0.04 0  1.44 0.04 0  1.46 0.04 0  1.48 0.04 0  1.5 0.04 0  1.52 0.04 0  1.54 0.04 0  1.56 0.04 0  1.58 0.04 0  1.6 0.04 0  1.62 0.04 0  1.64 0.04 0  1.66 0.04 0  1.68 0.04 0  1.7 0.04 0  1.72 0.04 0  1.74 0.04 0  1.76 0.04 0  1.78 0.04 0  1.8 0.04 0  1.82 0.04 0  1.84 0.04 0  1.86 0.04 0  1.88 0.04 0  1.9 0.04 0  1.92 0.04 0  1.94 0.04 0  1.96 0.04 0  1.98 0.04 0  2 0.04 0  0 0.06 0  0.02 0.06 0  0.04 0.06 0  0.06 0.06 0  0.08 0.06 0  0.1 0.06 0  0.12 0.06 0  0.14 0.06 0  0.16 0.06 0  0.18 0.06 0  0.2 0.06 0  0.22 0.06 0  0.24 0.06 0  0.26 0.06 0  0.28 0.06 0  0.3 0.06 0  0.32 0.06 0  0.34 0.06 0  0.36 0.06 0  0.38 0.06 0  0.4 0.06 0  0.42 0.06 0  0.44 0.06 0  0.46 0.06 0  0.48 0.06 0  0.5 0.06 0  0.52 0.06 0  0.54 0.06 0  0.5600000000000001 0.06 0  0.58 0.06 0  0.6 0.06 0  0.62 0.06 0  0.64 0.06 0  0.66 0.06 0  0.68 0.06 0  0.7 0.06 0  0.72 0.06 0  0.74 0.06 0  0.76 0.06 0  0.78 0.06 0  0.8 0.06 0  0.82 0.06 0  0.84 0.06 0  0.86 0.06 0  0.88 0.06 0  0.9 0.06 0  0.92 0.06 0  0.9399999999999999 0.06 0  0.96 0.06 0  0.98 0.06 0  1 0.06 0  1.02 0.06 0  1.04 0.06 0  1.06 0.06 0  1.08 0.06 0  1.1 0.06 0  1.12 0.06 0  1.14 0.06 0  1.16 0.06 0  1.18 0.06 0  1.2 0.06 0  1.22 0.06 0  1.24 0.06 0  1.26 0.06 0  1.28 0.06 0  1.3 0.06 0  1.32 0.06 0  1.34 0.06 0  1.36 0.06 0  1.38 0.06 0  1.4 0.06 0  1.42 0.06 0  1.44 0.06 0  1.46 0.06 0  1.48 0.06 0  1.5 0.06 0  1.52 0.06 0  1.54 0.06 0  1.56 0.06 0  1.58 0.06 0  1.6 0.06 0  1.62 0.06 0  1.64 0.06 0  1.66 0.06 0  1.68 0.06 0  1.7 0.06 0  1.72 0.06 0  1.74 0.06 0  1.76 0.06 0  1.78 0.06 0  1.8 0.06 0  1.82 0.06 0  1.84 0.06 0  1.86 0.06 0  1.88 0.06 0  1.9 0.06 0  1.92 0.06 0  1.94 0.06 0  1.96 0.06 0  1.98 0.06 0  2 0.06 0  0 0.08 0  0.02 0.08 0  0.04 0.08 0  0.06 0.08 0  0.08 0.08 0  0.1 0.08 0  0.12 0.08 0  0.14 0.08 0  0.16 0.08 0  0.18 0.08 0  0.2 0.08 0  0.22 0.08 0  0.24 0.08 0  0.26 0.08 0  0.28 0.08 0  0.3 0.08 0  0.32 0.08 0  0.34 0.08 0  0.36 0.08 0  0.38 0.08 0  0.4 0.08 0  0.42 0.08 0  0.44 0.08 0  0.46 0.08 0  0.48 0.08 0  0.5 0.08 0  0.52 0.08 0  0.54 0.08 0  0.5600000000000001 0.08 0  0.58 0.08 0  0.6 0.08 0  0.62 0.08 0  0.64 0.08 0  0.66 0.08 0  0.68 0.08 0  0.7 0.08 0  0.72 0.08 0  0.74 0.08 0  0.76 0.08 0  0.78 0.08 0  0.8 0.08 0  0.82 0.08 0  0.84 0.08 0  0.86 0.08 0  0.88 0.08 0  0.9 0.08 0  0.92 0.08 0  0.9399999999999999 0.08 0  0.96 0.08 0  0.98 0.08 0  1 0.08 0  1.02 0.08 0  1.04 0.08 0  1.06 0.08 0  1.08 0.08 0  1.1 0.08 0  1.12 0.08 0  1.14 0.08 0  1.16 0.08 0  1.18 0.08 0  1.2 0.08 0  1.22 0.08 0  1.24 0.08 0  1.26 0.08 0  1.28 0.08 0  1.3 0.08 0  1.32 0.08 0  1.34 0.08 0  1.36 0.08 0  1.38 0.08 0  1.4 0.08 0  1.42 0.08 0  1.44 0.08 0  1.46 0.08 0  1.48 0.08 0  1.5 0.08 0  1.52 0.08 0  1.54 0.08 0  1.56 0.08 0  1.58 0.08 0  1.6 0.08 0  1.62 0.08 0  1.64 0.08 0  1.66 0.08 0  1.68 0.08 0  1.7 0.08 0  1.72 0.08 0  1.74 0.08 0  1.76 0.08 0  1.78 0.08 0  1.8 0.08 0  1.82 0.08 0  1.84 0.08 0  1.86 0.08 0  1.88 0.08 0  1.9 0.08 0  1.92 0.08 0  1.94 0.08 0  1.96 0.08 0  1.98 0.08 0  2 0.08 0  0 0.1 0  0.02 0.1 0  0.04 0.1 0  0.06 0.1 0  0.08 0.1 0  0.1 0.1 0  0.12 0.1 0  0.14 0.1 0  0.16 0.1 0  0.18 0.1 0  0.2 0.1 0  0.22 0.1 0  0.24 0.1 0  0.26 0.1 0  0.28 0.1 0  0.3 0.1 0  0.32 0.1 0  0.34 0.1 0  0.36 0.1 0  0.38 0.1 0  0.4 0.1 0  0.42 0.1 0  0.44 0.1 0  0.46 0.1 0  0.48 0.1 0  0.5 0.1 0  0.52 0.1 0  0.54 0.1 0  0.5600000000000001 0.1 0  0.58 0.1 0  0.6 0.1 0  0.62 0.1 0  0.64 0.1 0  0.66 0.1 0  0.68 0.1 0  0.7 0.1 0  0.72 0.1 0  0.74 0.1 0  0.76 0.1 0  0.78 0.1 0  0.8 0.1 0  0.82 0.1 0  0.84 0.1 0  0.86 0.1 0  0.88 0.1 0  0.9 0.1 0  0.92 0.1 0  0.9399999999999999 0.1 0  0.96 0.1 0  0.98 0.1 0  1 0.1 0  1.02 0.1 0  1.04 0.1 0  1.06 0.1 0  1.08 0.1 0  1.1 0.1 0  1.12 0.1 0  1.14 0.1 0  1.16 0.1 0  1.18 0.1 0  1.2 0.1 0  1.22 0.1 0  1.24 0.1 0  1.26 0.1 0  1.28 0.1 0  1.3 0.1 0  1.32 0.1 0  1.34 0.1 0  1.36 0.1 0  1.38 0.1 0  1.4 0.1 0  1.42 0.1 0  1.44 0.1 0  1.46 0.1 0  1.48 0.1 0  1.5 0.1 0  1.52 0.1 0  1.54 0.1 0  1.56 0.1 0  1.58 0.1 0  1.6 0.1 0  1.62 0.1 0  1.64 0.1 0  1.66 0.1 0  1.68 0.1 0  1.7 0.1 0  1.72 0.1 0  1.74 0.1 0  1.76 0.1 0  1.78 0.1 0  1.8 0.1 0  1.82 0.1 0  1.84 0.1 0  1.86 0.1 0  1.88 0.1 0  1.9 0.1 0  1.92 0.1 0  1.94 0.1 0  1.96 0.1 0  1.98 0.1 0  2 0.1 0  0 0.12 0  0.02 0.12 0  0.04 0.12 0  0.06 0.12 0  0.08 0.12 0  0.1 0.12 0  0.12 0.12 0  0.14 0.12 0  0.16 0.12 0  0.18 0.12 0  0.2 0.12 0  0.22 0.12 0  0.24 0.12 0  0.26 0.12 0  0.28 0.12 0  0.3 0.12 0  0.32 0.12 0  0.34 0.12 0  0.36 0.12 0  0.38 0.12 0  0.4 0.12 0  0.42 0.12 0  0.44 0.12 0  0.46 0.12 0  0.48 0.12 0  0.5 0.12 0  0.52 0.12 0  0.54 0.12 0  0.5600000000000001 0.12 0  0.58 0.12 0  0.6 0.12 0  0.62 0.12 0  0.64 0.12 0  0.66 0.12 0  0.68 0.12 0  0.7 0.12 0  0.72 0.12 0  0.74 0.12 0  0.76 0.12 0  0.78 0.12 0  0.8 0.12 0  0.82 0.12 0  0.84 0.12 0  0.86 0.12 0  0.88 0.12 0  0.9 0.12 0  0.92 0.12 0  0.9399999999999999 0.12 0  0.96 0.12 0  0.98 0.12 0  1 0.12 0  1.02 0.12 0  1.04 0.12 0  1.06 0.12 0  1.08 0.12 0  1.1 0.12 0  1.12 0.12 0  1.14 0.12 0  1.16 0.12 0  1.18 0.12 0  1.2 0.12 0  1.22 0.12 0  1.24 0.12 0  1.26 0.12 0  1.28 0.12 0  1.3 0.12 0  1.32 0.12 0  1.34 0.12 0  1.36 0.12 0  1.38 0.12 0  1.4 0.12 0  1.42 0.12 0  1.44 0.12 0  1.46 0.12 0  1.48 0.12 0  1.5 0.12 0  1.52 0.12 0  1.54 0.12 0  1.56 0.12 0  1.58 0.12 0  1.6 0.12 0  1.62 0.12 0  1.64 0.12 0  1.66 0.12 0  1.68 0.12 0  1.7 0.12 0  1.72 0.12 0  1.74 0.12 0  1.76 0.12 0  1.78 0.12 0  1.8 0.12 0  1.82 0.12 0  1.84 0.12 0  1.86 0.12 0  1.88 0.12 0  1.9 0.12 0  1.92 0.12 0  1.94 0.12 0  1.96 0.12 0  1.98 0.12 0  2 0.12 0  0 0.14 0  0.02 0.14 0  0.04 0.14 0  0.06 0.14 0  0.08 0.14 0  0.1 0.14 0  0.12 0.14 0  0.14 0.14 0  0.16 0.14 0  0.18 0.14 0  0.2 0.14 0  0.22 0.14 0  0.24 0.14 0  0.26 0.14 0  0.28 0.14 0  0.3 0.14 0  0.32 0.14 0  0.34 0.14 0  0.36 0.14 0  0.38 0.14 0  0.4 0.14 0  0.42 0.14 0  0.44 0.14 0  0.46 0.14 0  0.48 0.14 0  0.5 0.14 0  0.52 0.14 0  0.54 0.14 0  0.5600000000000001 0.14 0  0.58 0.14 0  0.6 0.14 0  0.62 0.14 0  0.64 0.14 0  0.66 0.14 0  0.68 0.14 0  0.7 0.14 0  0.72 0.14 0  0.74 0.14 0  0.76 0.14 0  0.78 0.14 0  0.8 0.14 0  0.82 0.14 0  0.84 0.14 0  0.86 0.14 0  0.88 0.14 0  0.9 0.14 0  0.92 0.14 0  0.9399999999999999 0.14 0  0.96 0.14 0  0.98 0.14 0  1 0.14 0  1.02 0.14 0  1.04 0.14 0  1.06 0.14 0  1.08 0.14 0  1.1 0.14 0  1.12 0.14 0  1.14 0.14 0  1.16 0.14 0  1.18 0.14 0  1.2 0.14 0  1.22 0.14 0  1.24 0.14 0  1.26 0.14 0  1.28 0.14 0  1.3 0.14 0  1.32 0.14 0  1.34 0.14 0  1.36 0.14 0  1.38 0.14 0  1.4 0.14 0  1.42 0.14 0  1.44 0.14 0  1.46 0.14 0  1.48 0.14 0  1
[...]
<PointData  Scalars="sols[i]"> 
<DataArray  type="Float64"  Name="sols[i]"  format="ascii">2.1808071709432325e-01  1.4913438689273739e-01  1.4913434750954446e-01  1.4913428104198190e-01  1.4913418138586287e-01  1.4913404051315876e-01  1.4913384922575884e-01  1.4913359833889100e-01  1.4913327971298274e-01  1.4913288711453271e-01  1.4913241699845847e-01  1.4913186926359395e-01  1.4913124798826433e-01  1.4913056212142481e-01  1.4912982607559727e-01  1.4912906013293775e-01  1.4912829053293225e-01  1.4912754906031706e-01  1.4912687189807083e-01  1.4912629745878375e-01  1.4912586286896998e-01  1.4912559877234938e-01  1.4912552216651367e-01  1.4912562713141395e-01  1.4912587359913387e-01  1.4912617481254675e-01  1.4912638488087590e-01  1.4912628888338844e-01  1.4912559923278335e-01  1.4912396326460481e-01  1.4912098781526797e-01  1.4911628617122047e-01  1.4910955029921713e-01  1.4910064582022209e-01  1.4908971836329876e-01  1.4907728849561264e-01  1.4906430130037118e-01  1.4905209220705340e-01  1.4904224297642449e-01  1.4903634029550400e-01  1.4903570993338286e-01  1.4904127001091388e-01  1.4905368674677730e-01  1.4907373529018175e-01  1.4910210070109225e-01  1.4913808840814829e-01  1.4917830196801049e-01  1.4921698490883867e-01  1.4924819600358991e-01  1.4926839478829618e-01  1.4927723026616446e-01  1.4927634687185529e-01  1.4926828514882112e-01  1.4925618079178207e-01  1.4924336959994158e-01  1.4923248156196264e-01  1.4922436551076607e-01  1.4921792453868477e-01  1.4921130052287296e-01  1.4920331155614863e-01  1.4919393938699727e-01  1.4918384002189505e-01  1.4917363705306519e-01  1.4916356848727164e-01  1.4915354045272988e-01  1.4914336634161501e-01  1.4913298044127871e-01  1.4912253206448600e-01  1.4911236351824367e-01  1.4910292011319398e-01  1.4909464465827391e-01  1.4908789277728535e-01  1.4908288475793791e-01  1.4907969346373517e-01  1.4907825904622421e-01  1.4907841883349635e-01  1.4907994233260502e-01  1.4908256438704515e-01  1.4908601263400473e-01  1.4909002781393788e-01  1.4909437705857118e-01  1.4909886114778342e-01  1.4910331707993352e-01  1.4910761732859884e-01  1.4911166700364237e-01  1.4911539989625938e-01  1.4911877413110658e-01  1.4912176791228510e-01  1.4912437565246178e-01  1.4912660462079852e-01  1.4912847213227304e-01  1.4913000322137865e-01  1.4913122869069967e-01  1.4913218339735479e-01  1.4913290464060694e-01  1.4913343054072370e-01  1.4913379831852197e-01  1.4913404230537414e-01  1.4913419135452027e-01  1.4913426618359171e-01  3.3745942641445209e-01  1.4913438730369177e-01  6.9150233270864087e-02  6.9150184005218857e-02  6.9150096339514466e-02  6.9149960498050389e-02  6.9149764177965978e-02  6.9149493099676523e-02  6.9149132259873070e-02  6.9148667515196410e-02  6.9148087291126648e-02  6.9147384280483906e-02  6.9146557023879257e-02  6.9145611292511330e-02  6.9144561206083782e-02  6.9143430008159423e-02  6.9142250391320298e-02  6.9141064221597257e-02  6.9139921461952497e-02  6.9138878043892349e-02  6.9137992390136405e-02  6.9137320256805315e-02  6.9136907550057136e-02  6.9136780792635383e-02  6.9136934988333773e-02  6.9137318780678761e-02  6.9137817054600759e-02  6.9138231515047083e-02  6.9138260312412700e-02  6.9137478461542279e-02  6.9135321560029869e-02  6.9131076028420377e-02  6.9123879580949676e-02  6.9112735665509933e-02  6.9096544987187869e-02  6.9074155917163399e-02  6.9044434052546316e-02  6.9006351084040379e-02  6.8959098158350121e-02  6.8902244471212293e-02  6.8835989081085749e-02  6.8761573998314035e-02  6.8681896518289598e-02  6.8602222376517752e-02  6.8530371688981601e-02  6.8474924940827755e-02  6.8441073369549937e-02  6.8427164071042990e-02  6.8425410613311533e-02  6.8424763145986500e-02  6.8414377705639448e-02  6.8387283671324364e-02  6.8343946166237041e-02  6.8292837262446782e-02  6.8247403363200426e-02  6.8222343104321320e-02  6.8229860270305642e-02  6.8275431524385588e-02  6.8355536681041204e-02  6.8459557863820741e-02  6.8574213029830022e-02  6.8687566180438087e-02  6.8791030746529536e-02  6.8879547559820675e-02  6.8950875538638018e-02  6.9004765080899699e-02  6.9042320966675591e-02  6.9065547378339837e-02  6.9076988227718239e-02  6.9079417209049601e-02  6.9075576855103599e-02  6.9067977844548281e-02  6.9058763596765271e-02  6.9049637307499662e-02  6.9041843221528856e-02  6.9036190484273452e-02  6.9033106262781557e-02  6.9032705194295718e-02  6.9034864220404807e-02  6.9039294669449247e-02  6.9045606306281426e-02  6.9053360534184954e-02  6.9062111841437734e-02  6.9071437927003765e-02  6.9080959780693729e-02  6.9090353424707221e-02  6.9099355144596142e-02  6.9107761943173016e-02  6.9115428723722033e-02  6.9122263415696258e-02  6.9128220945592483e-02  6.9133296660506521e-02  6.9137519553631843e-02  6.9140945436740292e-02  6.9143650075264740e-02  6.9145722275862853e-02  6.9147257020740149e-02  6.9148348943623664e-02  6.9149086489176295e-02  6.9149546335688705e-02  6.9149787876277055e-02  1.4913426691406254e-01  1.4913434929930527e-01  6.9150184494348094e-02  6.9150113943924812e-02  6.9149994224358524e-02  6.9149818837138471e-02  6.9149581525245557e-02  6.9149276276200114e-02  6.9148897249725699e-02  6.9148439226808231e-02  6.9147898507881472e-02  6.9147274027747591e-02  6.9146568477487860e-02  6.9145789280533332e-02  6.9144949309634413e-02  6.9144067244511151e-02  6.9143167461884675e-02  6.9142279328486239e-02  6.9141435740737667e-02  6.9140670728198822e-02  6.9140015917143680e-02  6.9139495641771118e-02  6.9139120501004736e-02  6.9138879198407693e-02  6.9138728584616810e-02  6.9138581963029300e-02  6.9138295940046501e-02  6.9137656419443083e-02  6.9136364764196573e-02  6.9134025660915310e-02  6.9130138762001248e-02  6.9124096636263621e-02  6.9115191778746421e-02  6.9102635286700992e-02  6.9085589321420615e-02  6.9063214993506594e-02  6.9034737661024276e-02  6.8999534061588763e-02  6.8957251374511058e-02  6.8907977469201340e-02  6.8852491918771741e-02  6.8792626943832064e-02  6.8731751185333340e-02  6.8675344835562951e-02  6.8630927176678666e-02  6.8605415805586420e-02  6.8600294652228250e-02  6.8609559820547436e-02  6.8623166142894099e-02  6.8630294507350614e-02  6.8621959420649470e-02  6.8593826486224752e-02  6.8548032019501978e-02  6.8491848050502332e-02  6.8435376540951526e-02  6.8390569913022684e-02  6.8369539227436035e-02  6.8380396557388617e-02  6.8423603728561155e-02  6.8492692571227476e-02  6.8577599037717735e-02  6.8668035830984159e-02  6.8755645854229025e-02  6.8834780454898936e-02  6.8902319503739332e-02  6.8957086796595915e-02  6.8999246157014471e-02  6.9029828088032680e-02  6.9050388504313831e-02  6.9062756515933535e-02  6.9068838448304054e-02  6.9070465378205631e-02  6.9069282396454962e-02  6.9066678976152235e-02  6.9063756650630581e-02  6.9061327072044487e-02  6.9059932158944515e-02  6.9059878358162408e-02  6.9061278299955745e-02  6.9064094647522362e-02  6.9068182372016035e-02  6.9073326909786625e-02  6.9079276680459156e-02  6.9085769282496240e-02  6.9092551343491737e-02  6.9099392483518429e-02  6.9106094154912229e-02  6.9112494267483587e-02  6.9118468523584026e-02  6.9123929308930368e-02  6.9128822849675850e-02  6.9133125188077571e-02  6.9136837379031646e-02  6.9139980197765571e-02  6.9142588607462918e-02  6.9144706297025418e-02  6.9146380772255114e-02  6.9147659672692083e-02  6.9148588767095315e-02  6.9149210098609734e-02  6.9149556360442399e-02  1.4913419539981221e-01  1.4913428606271217e-01  6.9150097971161603e-02  6.9149995430342628e-02  6.9149831514956378e-02  6.9149604281582400e-02  6.9149313280965005e-02  6.9148960152268873e-02  6.9148547889265111e-02  6.9148080277053159e-02  6.9147561875622265e-02  6.9146998402636231e-02  6.9146397268512461e-02  6.9145768046757608e-02  6.9145122710362897e-02  6.9144475498079921e-02  6.9143842289355106e-02  6.9143239369152842e-02  6.9142681461114852e-02  6.9142178905996082e-02  6.9141733868094718e-02  6.9141335471056692e-02  6.9140953802226984e-02  6.9140532789017536e-02  6.9139982050656051e-02  6.9139167975005689e-02  6.9137904473593220e-02  6.9135944135053695e-02  6.9132970822337381e-02  6.9128595114992947e-02  6.9122354328003288e-02  6.9113719062195766e-02  6.9102108284583880e-02  6.9086914803437677e-02  6.9067542876056681e-02  6.9043460029773421e-02  6.9014266728243040e-02  6.8979790989806597e-02  6.8940220177084136e-02  6.8896285742418045e-02  6.8849512368127641e-02  6.8802526675890055e-02  6.8759456759747609e-02  6.8726579906864302e-02  6.8712068714727459e-02  6.8721667021597738e-02  6.8752169986965248e-02  6.8790757687820253e-02  6.8823055314730139e-02  6.8838051666020750e-02  6.8828640269483585e-02  6.8794700780372309e-02  6.8742398539092531e-02  6.8677710781072820e-02  6.8605079300202820e-02  6.8531688128491586e-02  6.8470560977325914e-02  6.8436865967489630e-02  6.8438018767365494e-02  6.8471710954239012e-02  6.8529614654784451e-02  6.8601587086061899e-02  6.8678505453509758e-02  6.8753574520434568e-02  6.8822468211893001e-02  6.8882866040926471e-02  6.8933853845324466e-02  6.8975430209712377e-02  6.9008169438163403e-02  6.9033002713610847e-02  6.9051066560693208e-02  6.9063586561827692e-02  6.9071784086885968e-02  6.9076804120647539e-02  6.9079664480932251e-02  6.9081225361432630e-02  6.9082176455923683e-02  6.9083038101648730e-02  6.9084172836721233e-02  6.9085804082574379e-02  6.9088039060635570e-02  6.9090893455736435e-02  6.9094315767207759e-02  6.9098209762550225e-02  6.9102453951921661e-02  6.9106917489909936e-02  6.9111472335263824e-02  6.9116001824671397e-02  6.9120406030741974e-02  6.9124604385260843e-02  6.9128536079315614e-02  6.9132158733388183e-02  6.9135445798029549e-02  6.9138383134788040e-02  6.9140965267133425e-02  6.9143191888361599e-02  6.9145065310717221e-02  6.9146589450241838e-02  6.9147770230979261e-02  6.9148614521312102e-02  6.9149120031821470e-02  1.4913405407178787e-01  1.4913419294402780e-01  6.9149964325373570e-02  6.9149822372479700e-02  6.9149606682523873e-02  6.9149322204277663e-02  6.9148974203468258e-02  6.9148570376716095e-02  6.9148120505189842e-02  6.9147635507651004e-02  6.9147126742554063e-02  6.9146605685949034e-02  6.9146083835008421e-02  6.9145572618161358e-02  6.9145083107143665e-02  6.9144625360134576e-02  6.9144207255153564e-02  6.9143832695442775e-02  6.9143499087676585e-02  6.9143194015614168e-02  6.9142891062347764e-02  6.9142544779413728e-02  6.9142084866307643e-02  6.9141409715097343e-02  6.9140379597493362e-02  6.9138809930751305e-02  6.9136465255394908e-02  6.9133054785470188e-02  6.9128230630654264e-02  6.9121590001316152e-02  6.9112682841154238e-02  6.9101026343795835e-02  6.9086127708661335e-02  6.9067516401953480e-02  6.9044787405547287e-02  6.9017657938707441e-02  6.8986042566557798e-02  6.8950156231466664e-02  6.8910661922679001e-02  6.8868885628291188e-02  6.8827106349419298e-02  6.8788862945946258e-02  6.8759340306574102e-02  6.8746501460813264e-02  6.8760597125672465e-02  6.8805995070753190e-02  6.8872548414078888e-02  6.8938308051433653e-02  6.8983618281902331e-02  1.0945586297314182e-01  1.4962349214470710e-01  1.4953895509454398e-01  1.4947813521638484e-01  1.0917660695303109e-01  6.8709966315914653e-02  6.8606209487714065e-02  6.8498522441550524e-02  6.8413718346763630e-02  6.8372309253317887e-02  6.8377294016324044e-02  6.8419237340077599e-02  6.8484794560681447e-02  6.8561922231827208e-02  6.8641826192844896e-02  6.8718925154014746e-02  6.8790032863507614e-02  6.8853499731720891e-02  6.8908602383339124e-02  6.8955194580753831e-02  6.8993529826880701e-02  6.9024163647175896e-02  6.9047878308759053e-02  6.9065607526851286e-02  6.9078359947641804e-02  6.9087148144091282e-02  6.9092929768644756e-02  6.9096564425502965e-02  6.9098786756402547e-02  6.9100194209295390e-02  6.9101246926954102e-02  6.9102276812763236e-02  6.9103502832334018e-02  6.9105049844495031e-02  6.9106968646411762e-02  6.9109255406284820e-02  6.9111869182477761e-02  6.9114746730903565e-02  6.9117814236230452e-02  6.9120995940343016e-02  6.9124219878915844e-02  6.9127421087730664e-02  6.9130542731081768e-02  6.9133535667551038e-02  6.9136357032083262e-02  6.9138968485550373e-02  6.9141334820469524e-02  6.9143423478893323e-02  6.9145205009083624e-02  6.9146653373848344e-02  6.9147742592679889e-02  6.9148432003582283e-02  1.4913382607998427e-01  1.4913406394547518e-01  6.9149771682747094e-02  6.9149588858031907e-02  6.9149319537161968e-02  6.9148977999108602e-02  6.9148575816429997e-02  6.9148125595109411e-02  6.9147641828634740e-02  6.9147140305350602e-02  6.9146637151611706e-02  6.9146147979115835e-02  6.9145687199041433e-02  6.9145267362133139e-02  6.9144898325751547e-02  6.9144586058581120e-02  6.9144330924983219e-02  6.9144125326291106e-02  6.9143950613120717e-02  6.9143773224822486e-02  6.9143540065171774e-02  6.9143173193025459e-02  6.9142563998171286e-02  6.9141567150191818e-02  6.9139994754244816e-02  6.9137611320958914e-02  6.9134130349799885e-02  6.9129213516376672e-02  6.9122473609293064e-02  6.9113482433439316e-02  6.9101784839021976e-02  6.9086919843178968e-02  6.9068449572035021e-02  6.9045996696432826e-02  6.9019291529865912e-02  6.8988231416372392e-02  6.8952957937858605e-02  6.8913963031599690e-02  6.8872246886083288e-02  6.8829572162389677e-02  6.8788865048079212e-02  6.8754646178704068e-02  6.8733473994883304e-02  6.8736172953533931e-02  6.8777033785440936e-02  6.8857486555643513e-02  6.8955538277967243e-02  1.0954733312556500e-01  1.4984009849396995e-01  2.2017042501458547e-01  5.0123755100684020e-01  5.0128130568688156e-01  5.0175932412576130e-01  5.0281867766552912e-01  2.2091643795685606e-01  1.0895029046767396e-01  6.8426998650195234e-02  6.8282930900866012e-02  6.8201827840480664e-02  6.8191472290358823e-02  6.8236435775802101e-02  6.8314535148631228e-02  6.8407533367022003e-02  6.8503813231665656e-02  6.8597027718076617e-02  6.8684002973996128e-02  6.8763170119426009e-02  6.8833706347896761e-02  6.8895184292321471e-02  6.8947485579508874e-02  6.8990802683225744e-02  6.9025635445148864e-02  6.9052750912698954e-02  6.9073110649578356e-02  6.9087783226850705e-02  6.9097859512274540e-02  6.9104382400264897e-02  6.9108296050797546e-02  6.9110414886680072e-02  6.9111409858769568e-02  6.9111808327482635e-02  6.9112003710667419e-02  6.9112271354895283e-02  6.9112787626409045e-02  6.9113649842300728e-02  6.9114895290833950e-02  6.9116518171923255e-02  6.9118483791962393e-02  6.9120739754018556e-02  6.9123224193145455e-02  6.9125871329644040e-02  6.9128614772805103e-02  6.9131389128184534e-02  6.9134130554813822e-02  6.9136776960425889e-02  6.9139268415930391e-02  6.9141547923323804e-02  6.9143561705600043e-02  6.9145257004918553e-02  6.9146574785307058e-02  6.9147435695263576e-02  1.4913348915322672e-01  1.4913389245376968e-01  6.9149506101117433e-02  6.9149288990806607e-02  6.9148971614494237e-02  6.9148578996558352e-02  6.9148130032133825e-02  6.9147641869104548e-02  6.9147132267818934e-02  6.9146619941279686e-02  6.9146123807582283e-02  6.9145661885848059e-02  6.9145250155013299e-02  6.9144901375892354e-02  6.9144623729489457e-02  6.9144419089400611e-02  6.9144280763656196e-02  6.9144190579764689e-02  6.9144115235156900e-02  6.9144001893621757e-02  6.9143773080800996e-02  6.9143321023625873e-02  6.9142501694199318e-02  6.9141128960678783e-02  6.9138969415064713e-02  6.9135738632951416e-02  6.9131099805204571e-02  6.9124665833406568e-02  6.9116006051136755e-02  6.9104658665524593e-02  6.9090149770493992e-02  6.9072019395857442e-02  6.9049854688502776e-02  6.9023330301412070e-02  6.8992256802944199e-02  6.8956639665506969e-02  6.8916754162710619e-02  6.8873246389638085e-02  6.8827284704766345e-02  6.8780827655906179e-02  6.8737141194243651e-02  6.8701485130240075e-02  6.8682092841092501e-02  6.8694941359082412e-02  6.8760122092722600e-02  6.8873049149380486e-02  1.0954047837902926e-01  2.2094400182220564e-01  5.0150078746075910e-01  5.0040176360128952e-01  4.9987813135434289e-01  4.9953154181340625e-01  5.0009752304932364e-01  5.0077318738318055e-01  5.0338005325081314e-01  5.0725207843710574e-01  1.4932398231333960e-01  6.7982558153235562e-02  6.7864215062072256e-02  6.7868814309837266e-02  6.7953611708675615e-02  6.8076661382173165e-02  6.8209594178810701e-02  6.8338352943737829e-02  6.8457789121114526e-02  6.8566704242332521e-02  6.8665080842742976e-02  6.8752975285833684e-02  6.8830297683931174e-02  6.8896944661966580e-02  6.8952992316207051e-02  6.8998821355575987e-02  6.9035144115983521e-02  6.9062952373147468e-02  6.9083421677978402e-02  6.9097805434471138e-02  6.9107341027983424e-02  6.9113178777172074e-02  6.9116335987339711e-02  6.9117673479990899e-02  6.9117889881041727e-02  6.9117528596587485e-02  6.9116992920765258e-02  6.9116565558294013e-02  6.9116429722740541e-02  6.9116689771429929e-02  6.9117390020680680e-02  6.9118530944783110e-02  6.9120082405310118e-02  6.9121993896869155e-02  6.9124202049210048e-02  6.9126635813578002e-02  6.9129219897363328e-02  6.9131877087102195e-02  6.9134530057850682e-02  6.9137102966632127e-02  6.9139522357926808e-02  6.9141715629866429e-02  6.9143604545120932e-02  6.9145094383412542e-02  6.9146071813066104e-02  1.4913301907231924e-01  1.4913367236244002e-01  6.9149152657195040e-02  6.9148916651009029e-02  6.9148565253476485e-02  6.9148133931190278e-02  6.9147649884231846e-02  6.9147135064403148e-02  6.9146609825618488e-02  6.9146094490699223e-02  6.9145609196916979e-02  6.9145172849748304e-02  6.9144801725804561e-02  6.9144507889788598e-02  6.9144297364562429e-02  6.9144167905548615e-02  6.9144106222972360e-02  6.9144084527470173e-02  6.9144056327928444e-02  6.9143951480402949e-02  6.9143670575646826e-02  6.9143078864056087e-02  6.9142000054218195e-02  6.9140210485125531e-02  6.9137434357602209e-02  6.9133340903616308e-02  6.9127544545440872e-02  6.9119609205477453e-02  6.9109057911596050e-02  6.9095388639789021e-02  6.9078096916974571e-02  6.9056705138024782e-02  6.9030798066229609e-02  6.9000064006483189e-02  6.8964342123984446e-02  6.8923678409226058e-02  6.8878395205036622e-02  6.8829181918678900e-02  6.8777224955150498e-02  6.8724440617741217e-02  6.8673962021314844e-02  6.8630544234366611e-02  6.8602658630066177e-02  6.8618136231002463e-02  6.8710177509897261e-02  1.0942478876413991e-01  2.2161195687008933e-01  5.0161381251224957e-01  5.0039676112928189e-01  4.9736854219758980e-01  4.9736854219818638e-01  4.9736854219926263e-01  4.9736854219875215e-01  4.9736854219889132e-01  4.9736854219815668e-01  5.0334161813708533e-01  5.1104746011452362e-01  1.4867747072446563e-01  6.7239234219020894e-02  6.7315719354915135e-02  6.7517087105784024e-02  6.7744233025665013e-02  6.7955628344661512e-02  6.8140000360735170e-02  6.8299004182418743e-02  6.8437429033288866e-02  6.8559266710854772e-02  6.8666865487047202e-02  6.8761271471301677e-02  6.8842853682659147e-02  6.8911843773600212e-02  6.8968674033042285e-02  6.9014115301754581e-02  6.9049266874867399e-02  6.9075463030492473e-02  6.9094151299801412e-02  6.9106778660327897e-02  6.9114703480970249e-02  6.9119137926923299e-02  6.9121118013923871e-02  6.9121495314605486e-02  6.9120943812533087e-02  6.9119976203676742e-02  6.9118965181826919e-02  6.9118166462125180e-02  6.9117741323193815e-02  6.9117777254957879e-02  6.9118305912959949e-02  6.9119318039481653e-02  6.9120775352483566e-02  6.9122619653755324e-02  6.9124779587866336e-02  6.9127175597728324e-02  6.9129723643175489e-02  6.9132338089570589e-02  6.9134933666637338e-02  6.9137425349894477e-02  6.9139723608336395e-02  6.9141722678852158e-02  6.9143288519818658e-02  6.9144284926434096e-02  1.4913239305362752e-01  1.4913339897244271e-01  6.9148696809437679e-02  6.9148465771845274e-02  6.9148102888604540e-02  6.9147651880724165e-02  6.9147148883536833e-02  6.9146621251965648e-02  6.9146091893855177e-02  6.9145582091094379e-02  6.9145112174054224e-02  6.9144700799478459e-02  6.9144363514810930e-02  6.9144110921726190e-02  6.9143946476319690e-02  6.9143863828606170e-02  6.9143843566687124e-02  6.9143849249814177e-02  6.9143822666626470e-02  6.9143678331683583e-02  6.9143297334666648e-02  6.9142520784737482e-02  6.91411432493