<?xml version="1.0"?>
<VTKFile type="UnstructuredGrid"  version="0.1"  >
<UnstructuredGrid>
<Piece  NumberOfPoints="5151" NumberOfCells="10000">
<Points>
<DataArray  type="Float64"  NumberOfComponents="3"  format="ascii">0 0 0  0.02 0 0  0.04 0 0  0.06 0 0  0.08 0 0  0.1 0 0  0.12 0 0  0.14 0 0  0.16 0 0  0.18 0 0  0.2 0 0  0.22 0 0  0.24 0 0  0.26 0 0  0.28 0 0  0.3 0 0  0.32 0 0  0.34 0 0  0.36 0 0  0.38 0 0  0.4 0 0  0.42 0 0  0.44 0 0  0.46 0 0  0.48 0 0  0.5 0 0  0.52 0 0  0.54 0 0  0.5600000000000001 0 0  0.58 0 0  0.6 0 0  0.62 0 0  0.64 0 0  0.66 0 0  0.68 0 0  0.7 0 0  0.72 0 0  0.74 0 0  0.76 0 0  0.78 0 0  0.8 0 0  0.82 0 0  0.84 0 0  0.86 0 0  0.88 0 0  0.9 0 0  0.92 0 0  0.9399999999999999 0 0  0.96 0 0  0.98 0 0  1 0 0  1.02 0 0  1.04 0 0  1.06 0 0  1.08 0 0  1.1 0 0  1.12 0 0  1.14 0 0  1.16 0 0  1.18 0 0  1.2 0 0  1.22 0 0  1.24 0 0  1.26 0 0  1.28 0 0  1.3 0 0  1.32 0 0  1.34 0 0  1.36 0 0  1.38 0 0  1.4 0 0  1.42 0 0  1.44 0 0  1.46 0 0  1.48 0 0  1.5 0 0  1.52 0 0  1.54 0 0  1.56 0 0  1.58 0 0  1.6 0 0  1.62 0 0  1.64 0 0  1.66 0 0  1.68 0 0  1.7 0 0  1.72 0 0  1.74 0 0  1.76 0 0  1.78 0 0  1.8 0 0  1.82 0 0  1.84 0 0  1.86 0 0  1.88 0 0  1.9 0 0  1.92 0 0  1.94 0 0  1.96 0 0  1.98 0 0  2 0 0  0 0.02 0  0.02 0.02 0  0.04 0.02 0  0.06 0.02 0  0.08 0.02 0  0.1 0.02 0  0.12 0.02 0  0.14 0.02 0  0.16 0.02 0  0.18 0.02 0  0.2 0.02 0  0.22 0.02 0  0.24 0.02 0  0.26 0.02 0  0.28 0.02 0  0.3 0.02 0  0.32 0.02 0  0.34 0.02 0  0.36 0.02 0  0.38 0.02 0  0.4 0.02 0  0.42 0.02 0  0.44 0.02 0  0.46 0.02 0  0.48 0.02 0  0.5 0.02 0  0.52 0.02 0  0.54 0.02 0  0.5600000000000001 0.02 0  0.58 0.02 0  0.6 0.02 0  0.62 0.02 0  0.64 0.02 0  0.66 0.02 0  0.68 0.02 0  0.7 0.02 0  0.72 0.02 0  0.74 0.02 0  0.76 0.02 0  0.78 0.02 0  0.8 0.02 0  0.82 0.02 0  0.84 0.02 0  0.86 0.02 0  0.88 0.02 0  0.9 0.02 0  0.92 0.02 0  0.9399999999999999 0.02 0  0.96 0.02 0  0.98 0.02 0  1 0.02 0  1.02 0.02 0  1.04 0.02 0  1.06 0.02 0  1.08 0.02 0  1.1 0.02 0  1.12 0.02 0  1.14 0.02 0  1.16 0.02 0  1.18 0.02 0  1.2 0.02 0  1.22 0.02 0  1.24 0.02 0  1.26 0.02 0  1.28 0.02 0  1.3 0.02 0  1.32 0.02 0  1.34 0.02 0  1.36 0.02 0  1.38 0.02 0  1.4 0.02 0  1.42 0.02 0  1.44 0.02 0  1.46 0.02 0  1.48 0.02 0  1.5 0.02 0  1.52 0.02 0  1.54 0.02 0  1.56 0.02 0  1.58 0.02 0  1.6 0.02 0  1.62 0.02 0  1.64 0.02 0  1.66 0.02 0  1.68 0.02 0  1.7 0.02 0  1.72 0.02 0  1.74 0.02 0  1.76 0.02 0  1.78 0.02 0  1.8 0.02 0  1.82 0.02 0  1.84 0.02 0  1.86 0.02 0  1.88 0.02 0  1.9 0.02 0  1.92 0.02 0  1.94 0.02 0  1.96 0.02 0  1.98 0.02 0  2 0.02 0  0 0.04 0  0.02 0.04 0  0.04 0.04 0  0.06 0.04 0  0.08 0.04 0  0.1 0.04 0  0.12 0.04 0  0.14 0.04 0  0.16 0.04 0  0.18 0.04 0  0.2 0.04 0  0.22 0.04 0  0.24 0.04 0  0.26 0.04 0  0.28 0.04 0  0.3 0.04 0  0.32 0.04 0  0.34 0.04 0  0.36 0.04 0  0.38 0.04 0  0.4 0.04 0  0.42 0.04 0  0.44 0.04 0  0.46 0.04 0  0.48 0.04 0  0.5 0.04 0  0.52 0.04 0  0.54 0.04 0  0.5600000000000001 0.04 0  0.58 0.04 0  0.6 0.04 0  0.62 0.04 0  0.64 0.04 0  0.66 0.04 0  0.68 0.04 0  0.7 0.04 0  0.72 0.04 0  0.74 0.04 0  0.76 0.04 0  0.78 0.04 0  0.8 0.04 0  0.82 0.04 0  0.84 0.04 0  0.86 0.04 0  0.88 0.04 0  0.9 0.04 0  0.92 0.04 0  0.9399999999999999 0.04 0  0.96 0.04 0  0.98 0.04 0  1 0.04 0  1.02 0.04 0  1.04 0.04 0  1.06 0.04 0  1.08 0.04 0  1.1 0.04 0  1.12 0.04 0  1.14 0.04 0  1.16 0.04 0  1.18 0.04 0  1.2 0.04 0  1.22 0.04 0  1.24 0.04 0  1.26 0.04 0  1.28 0.04 0  1.3 0.04 0  1.32 0.04 0  1.34 0.04 0  1.36 0.04 0  1.38 0.04 0  1.4 0.04 0  1.42 0.04 0  1.44 0.04 0  1.46 0.04 0  1.48 0.04 0  1.5 0.04 0  1.52 0.04 0  1.54 0.04 0  1.56 0.04 0  1.58 0.04 0  1.6 0.04 0  1.62 0.04 0  1.64 0.04 0  1.66 0.04 0  1.68 0.04 0  1.7 0.04 0  1.72 0.04 0  1.74 0.04 0  1.76 0.04 0  1.78 0.04 0  1.8 0.04 0  1.82 0.04 0  1.84 0.04 0  1.86 0.04 0  1.88 0.04 0  1.9 0.04 0  1.92 0.04 0  1.94 0.04 0  1.96 0.04 0  1.98 0.04 0  2 0.04 0  0 0.06 0  0.02 0.06 0  0.04 0.06 0  0.06 0.06 0  0.08 0.06 0  0.1 0.06 0  0.12 0.06 0  0.14 0.06 0  0.16 0.06 0  0.18 0.06 0  0.2 0.06 0  0.22 0.06 0  0.24 0.06 0  0.26 0.06 0  0.28 0.06 0  0.3 0.06 0  0.32 0.06 0  0.34 0.06 0  0.36 0.06 0  0.38 0.06 0  0.4 0.06 0  0.42 0.06 0  0.44 0.06 0  0.46 0.06 0  0.48 0.06 0  0.5 0.06 0  0.52 0.06 0  0.54 0.06 0  0.5600000000000001 0.06 0  0.58 0.06 0  0.6 0.06 0  0.62 0.06 0  0.64 0.06 0  0.66 0.06 0  0.68 0.06 0  0.7 0.06 0  0.72 0.06 0  0.74 0.06 0  0.76 0.06 0  0.78 0.06 0  0.8 0.06 0  0.82 0.06 0  0.84 0.06 0  0.86 0.06 0  0.88 0.06 0  0.9 0.06 0  0.92 0.06 0  0.9399999999999999 0.06 0  0.96 0.06 0  0.98 0.06 0  1 0.06 0  1.02 0.06 0  1.04 0.06 0  1.06 0.06 0  1.08 0.06 0  1.1 0.06 0  1.12 0.06 0  1.14 0.06 0  1.16 0.06 0  1.18 0.06 0  1.2 0.06 0  1.22 0.06 0  1.24 0.06 0  1.26 0.06 0  1.28 0.06 0  1.3 0.06 0  1.32 0.06 0  1.34 0.06 0  1.36 0.06 0  1.38 0.06 0  1.4 0.06 0  1.42 0.06 0  1.44 0.06 0  1.46 0.06 0  1.48 0.06 0  1.5 0.06 0  1.52 0.06 0  1.54 0.06 0  1.56 0.06 0  1.58 0.06 0  1.6 0.06 0  1.62 0.06 0  1.64 0.06 0  1.66 0.06 0  1.68 0.06 0  1.7 0.06 0  1.72 0.06 0  1.74 0.06 0  1.76 0.06 0  1.78 0.06 0  1.8 0.06 0  1.82 0.06 0  1.84 0.06 0  1.86 0.06 0  1.88 0.06 0  1.9 0.06 0  1.92 0.06 0  1.94 0.06 0  1.96 0.06 0  1.98 0.06 0  2 0.06 0  0 0.08 0  0.02 0.08 0  0.04 0.08 0  0.06 0.08 0  0.08 0.08 0  0.1 0.08 0  0.12 0.08 0  0.14 0.08 0  0.16 0.08 0  0.18 0.08 0  0.2 0.08 0  0.22 0.08 0  0.24 0.08 0  0.26 0.08 0  0.28 0.08 0  0.3 0.08 0  0.32 0.08 0  0.34 0.08 0  0.36 0.08 0  0.38 0.08 0  0.4 0.08 0  0.42 0.08 0  0.44 0.08 0  0.46 0.08 0  0.48 0.08 0  0.5 0.08 0  0.52 0.08 0  0.54 0.08 0  0.5600000000000001 0.08 0  0.58 0.08 0  0.6 0.08 0  0.62 0.08 0  0.64 0.08 0  0.66 0.08 0  0.68 0.08 0  0.7 0.08 0  0.72 0.08 0  0.74 0.08 0  0.76 0.08 0  0.78 0.08 0  0.8 0.08 0  0.82 0.08 0  0.84 0.08 0  0.86 0.08 0  0.88 0.08 0  0.9 0.08 0  0.92 0.08 0  0.9399999999999999 0.08 0  0.96 0.08 0  0.98 0.08 0  1 0.08 0  1.02 0.08 0  1.04 0.08 0  1.06 0.08 0  1.08 0.08 0  1.1 0.08 0  1.12 0.08 0  1.14 0.08 0  1.16 0.08 0  1.18 0.08 0  1.2 0.08 0  1.22 0.08 0  1.24 0.08 0  1.26 0.08 0  1.28 0.08 0  1.3 0.08 0  1.32 0.08 0  1.34 0.08 0  1.36 0.08 0  1.38 0.08 0  1.4 0.08 0  1.42 0.08 0  1.44 0.08 0  1.46 0.08 0  1.48 0.08 0  1.5 0.08 0  1.52 0.08 0  1.54 0.08 0  1.56 0.08 0  1.58 0.08 0  1.6 0.08 0  1.62 0.08 0  1.64 0.08 0  1.66 0.08 0  1.68 0.08 0  1.7 0.08 0  1.72 0.08 0  1.74 0.08 0  1.76 0.08 0  1.78 0.08 0  1.8 0.08 0  1.82 0.08 0  1.84 0.08 0  1.86 0.08 0  1.88 0.08 0  1.9 0.08 0  1.92 0.08 0  1.94 0.08 0  1.96 0.08 0  1.98 0.08 0  2 0.08 0  0 0.1 0  0.02 0.1 0  0.04 0.1 0  0.06 0.1 0  0.08 0.1 0  0.1 0.1 0  0.12 0.1 0  0.14 0.1 0  0.16 0.1 0  0.18 0.1 0  0.2 0.1 0  0.22 0.1 0  0.24 0.1 0  0.26 0.1 0  0.28 0.1 0  0.3 0.1 0  0.32 0.1 0  0.34 0.1 0  0.36 0.1 0  0.38 0.1 0  0.4 0.1 0  0.42 0.1 0  0.44 0.1 0  0.46 0.1 0  0.48 0.1 0  0.5 0.1 0  0.52 0.1 0  0.54 0.1 0  0.5600000000000001 0.1 0  0.58 0.1 0  0.6 0.1 0  0.62 0.1 0  0.64 0.1 0  0.66 0.1 0  0.68 0.1 0  0.7 0.1 0  0.72 0.1 0  0.74 0.1 0  0.76 0.1 0  0.78 0.1 0  0.8 0.1 0  0.82 0.1 0  0.84 0.1 0  0.86 0.1 0  0.88 0.1 0  0.9 0.1 0  0.92 0.1 0  0.9399999999999999 0.1 0  0.96 0.1 0  0.98 0.1 0  1 0.1 0  1.02 0.1 0  1.04 0.1 0  1.06 0.1 0  1.08 0.1 0  1.1 0.1 0  1.12 0.1 0  1.14 0.1 0  1.16 0.1 0  1.18 0.1 0  1.2 0.1 0  1.22 0.1 0  1.24 0.1 0  1.26 0.1 0  1.28 0.1 0  1.3 0.1 0  1.32 0.1 0  1.34 0.1 0  1.36 0.1 0  1.38 0.1 0  1.4 0.1 0  1.42 0.1 0  1.44 0.1 0  1.46 0.1 0  1.48 0.1 0  1.5 0.1 0  1.52 0.1 0  1.54 0.1 0  1.56 0.1 0  1.58 0.1 0  1.6 0.1 0  1.62 0.1 0  1.64 0.1 0  1.66 0.1 0  1.68 0.1 0  1.7 0.1 0  1.72 0.1 0  1.74 0.1 0  1.76 0.1 0  1.78 0.1 0  1.8 0.1 0  1.82 0.1 0  1.84 0.1 0  1.86 0.1 0  1.88 0.1 0  1.9 0.1 0  1.92 0.1 0  1.94 0.1 0  1.96 0.1 0  1.98 0.1 0  2 0.1 0  0 0.12 0  0.02 0.12 0  0.04 0.12 0  0.06 0.12 0  0.08 0.12 0  0.1 0.12 0  0.12 0.12 0  0.14 0.12 0  0.16 0.12 0  0.18 0.12 0  0.2 0.12 0  0.22 0.12 0  0.24 0.12 0  0.26 0.12 0  0.28 0.12 0  0.3 0.12 0  0.32 0.12 0  0.34 0.12 0  0.36 0.12 0  0.38 0.12 0  0.4 0.12 0  0.42 0.12 0  0.44 0.12 0  0.46 0.12 0  0.48 0.12 0  0.5 0.12 0  0.52 0.12 0  0.54 0.12 0  0.5600000000000001 0.12 0  0.58 0.12 0  0.6 0.12 0  0.62 0.12 0  0.64 0.12 0  0.66 0.12 0  0.68 0.12 0  0.7 0.12 0  0.72 0.12 0  0.74 0.12 0  0.76 0.12 0  0.78 0.12 0  0.8 0.12 0  0.82 0.12 0  0.84 0.12 0  0.86 0.12 0  0.88 0.12 0  0.9 0.12 0  0.92 0.12 0  0.9399999999999999 0.12 0  0.96 0.12 0  0.98 0.12 0  1 0.12 0  1.02 0.12 0  1.04 0.12 0  1.06 0.12 0  1.08 0.12 0  1.1 0.12 0  1.12 0.12 0  1.14 0.12 0  1.16 0.12 0  1.18 0.12 0  1.2 0.12 0  1.22 0.12 0  1.24 0.12 0  1.26 0.12 0  1.28 0.12 0  1.3 0.12 0  1.32 0.12 0  1.34 0.12 0  1.36 0.12 0  1.38 0.12 0  1.4 0.12 0  1.42 0.12 0  1.44 0.12 0  1.46 0.12 0  1.48 0.12 0  1.5 0.12 0  1.52 0.12 0  1.54 0.12 0  1.56 0.12 0  1.58 0.12 0  1.6 0.12 0  1.62 0.12 0  1.64 0.12 0  1.66 0.12 0  1.68 0.12 0  1.7 0.12 0  1.72 0.12 0  1.74 0.12 0  1.76 0.12 0  1.78 0.12 0  1.8 0.12 0  1.82 0.12 0  1.84 0.12 0  1.86 0.12 0  1.88 0.12 0  1.9 0.12 0  1.92 0.12 0  1.94 0.12 0  1.96 0.12 0  1.98 0.12 0  2 0.12 0  0 0.14 0  0.02 0.14 0  0.04 0.14 0  0.06 0.14 0  0.08 0.14 0  0.1 0.14 0  0.12 0.14 0  0.14 0.14 0  0.16 0.14 0  0.18 0.14 0  0.2 0.14 0  0.22 0.14 0  0.24 0.14 0  0.26 0.14 0  0.28 0.14 0  0.3 0.14 0  0.32 0.14 0  0.34 0.14 0  0.36 0.14 0  0.38 0.14 0  0.4 0.14 0  0.42 0.14 0  0.44 0.14 0  0.46 0.14 0  0.48 0.14 0  0.5 0.14 0  0.52 0.14 0  0.54 0.14 0  0.5600000000000001 0.14 0  0.58 0.14 0  0.6 0.14 0  0.62 0.14 0  0.64 0.14 0  0.66 0.14 0  0.68 0.14 0  0.7 0.14 0  0.72 0.14 0  0.74 0.14 0  0.76 0.14 0  0.78 0.14 0  0.8 0.14 0  0.82 0.14 0  0.84 0.14 0  0.86 0.14 0  0.88 0.14 0  0.9 0.14 0  0.92 0.14 0  0.9399999999999999 0.14 0  0.96 0.14 0  0.98 0.14 0  1 0.14 0  1.02 0.14 0  1.04 0.14 0  1.06 0.14 0  1.08 0.14 0  1.1 0.14 0  1.12 0.14 0  1.14 0.14 0  1.16 0.14 0  1.18 0.14 0  1.2 0.14 0  1.22 0.14 0  1.24 0.14 0  1.26 0.14 0  1.28 0.14 0  1.3 0.14 0  1.32 0.14 0  1.34 0.14 0  1.36 0.14 0  1.38 0.14 0  1.4 0.14 0  1.42 0.14 0  1.44 0.14 0  1.46 0.14 0  1.48 0.14 0  1
[...]
<PointData  Scalars="sols[i]"> 
<DataArray  type="Float64"  Name="sols[i]"  format="ascii">2.6164302360906788e-01  1.8994776373755870e-01  1.8994778393811543e-01  1.8994782088224868e-01  1.8994788157276749e-01  1.8994797533205940e-01  1.8994811346515914e-01  1.8994830849827440e-01  1.8994857334020429e-01  1.8994892060550050e-01  1.8994936222452857e-01  1.8994990934556644e-01  1.8995057246693653e-01  1.8995136166790966e-01  1.8995228675242365e-01  1.8995335708434313e-01  1.8995458087752953e-01  1.8995596370758611e-01  1.8995750608786061e-01  1.8995920007563644e-01  1.8996102511560964e-01  1.8996294331072414e-01  1.8996489417481963e-01  1.8996679365699906e-01  1.8996853326539292e-01  1.8996998285600519e-01  1.8997100030438596e-01  1.8997144585006490e-01  1.8997120121789890e-01  1.8997019207838164e-01  1.8996841132139844e-01  1.8996593994282301e-01  1.8996296214618003e-01  1.8995977166843009e-01  1.8995676734394806e-01  1.8995443759334327e-01  1.8995333722920649e-01  1.8995406595532630e-01  1.8995722289323433e-01  1.8996334270184140e-01  1.8997289334500650e-01  1.8998624642225503e-01  1.9000364716405801e-01  1.9002519503839865e-01  1.9005083584387922e-01  1.9008036557941257e-01  1.9011344581884373e-01  1.9014962956118933e-01  1.9018839324899242e-01  1.9022916658824934e-01  1.9027134981416324e-01  1.9031431469645865e-01  1.9035739671931262e-01  1.9039990241301627e-01  1.9044115874190076e-01  1.9048060385921792e-01  1.9051786262972933e-01  1.9055271386670281e-01  1.9058498249336009e-01  1.9061450553070439e-01  1.9064127776612377e-01  1.9066570724559215e-01  1.9068873174686857e-01  1.9071192627214320e-01  1.9073773707015865e-01  1.9076927032854007e-01  1.9080970954639309e-01  1.9086243128818559e-01  1.9093180643262392e-01  1.9102329161297316e-01  1.9114313789998841e-01  1.9129962659761718e-01  1.9150529308712033e-01  1.9177550290364256e-01  1.9212040161002458e-01  1.9253129631918345e-01  1.9296540591063380e-01  1.9333622220625274e-01  1.9352590614793183e-01  1.9343768134076586e-01  1.9306686645129639e-01  1.9252012730288784e-01  1.9195207012330029e-01  1.9147472709187549e-01  1.9112055058294458e-01  1.9086876670561412e-01  1.9068399207043213e-01  1.9053768318619851e-01  1.9041346185981517e-01  1.9030490680211951e-01  1.9021125216404011e-01  1.9013357605287665e-01  1.9007247127408486e-01  1.9002717816481188e-01  1.8999567703213580e-01  1.8997520068715215e-01  1.8996280855028613e-01  1.8995584854337694e-01  1.8995225159451373e-01  1.8995065699539521e-01  3.7110777737625134e-01  1.8994776352114079e-01  1.2188999199623959e-01  1.2189000239648602e-01  1.2189002133623432e-01  1.2189005143648798e-01  1.2189009604156661e-01  1.2189015925592032e-01  1.2189024583464927e-01  1.2189036098320957e-01  1.2189051015109981e-01  1.2189069886744969e-01  1.2189093262943576e-01  1.2189121682808879e-01  1.2189155667257445e-01  1.2189195705784917e-01  1.2189242230699503e-01  1.2189295571515378e-01  1.2189355883267429e-01  1.2189423045017285e-01  1.2189496529469011e-01  1.2189575250811627e-01  1.2189657404231084e-01  1.2189740310276623e-01  1.2189820341646210e-01  1.2189892927660941e-01  1.2189952609529273e-01  1.2189993306130571e-01  1.2190008703542812e-01  1.2189992769106439e-01  1.2189940360069910e-01  1.2189847870302337e-01  1.2189713843964145e-01  1.2189539477678907e-01  1.2189328934793484e-01  1.2189089408743781e-01  1.2188830901277728e-01  1.2188565749505642e-01  1.2188308139571657e-01  1.2188073431534763e-01  1.2187875243923443e-01  1.2187725030723322e-01  1.2187631358793485e-01  1.2187597916155317e-01  1.2187621791508092e-01  1.2187691890266231e-01  1.2187787414395371e-01  1.2187876278117867e-01  1.2187913287669350e-01  1.2187837716672423e-01  1.2187569658108968e-01  1.2187004468203042e-01  1.2186005142922729e-01  1.2184393273607036e-01  1.2181940106025341e-01  1.2178359313157307e-01  1.2173301643421348e-01  1.2166348422682904e-01  1.2156999868869403e-01  1.2144662644539977e-01  1.2128648753664822e-01  1.2108194317118166e-01  1.2082494255639073e-01  1.2050745968423660e-01  1.2012210743294016e-01  1.1966287477511578e-01  1.1912574743070303e-01  1.1850933181205869e-01  1.1781542491893172e-01  1.1704841063759844e-01  1.1621294923792477e-01  1.1531224778486751e-01  1.1434890864970773e-01  1.1332741641380714e-01  1.1225583465981789e-01  1.1115018176189506e-01  1.1005063196603931e-01  1.0904983146511163e-01  1.0831228021643891e-01  1.0805422470682363e-01  1.0847751148039651e-01  1.0969478013723340e-01  1.1164902691514331e-01  1.1403428980689956e-01  1.1638791408835272e-01  1.1834365777023940e-01  1.1976324263873317e-01  1.2069182082634708e-01  1.2125235178236912e-01  1.2156981842331083e-01  1.2174009428926667e-01  1.2182670791007029e-01  1.2186812014340606e-01  1.2188623209554347e-01  1.2189295848100212e-01  1.2189452690570791e-01  1.2189405387016340e-01  1.2189300924051968e-01  1.2189202088776233e-01  1.2189130734989734e-01  1.2189090810989005e-01  1.8995045355594822e-01  1.8994778299343973e-01  1.2189000204869836e-01  1.2189001725018517e-01  1.2189004347599611e-01  1.2189008262733109e-01  1.2189013675124344e-01  1.2189020806250303e-01  1.2189029901940787e-01  1.2189041232358444e-01  1.2189055085188533e-01  1.2189071755980277e-01  1.2189091538072755e-01  1.2189114712106383e-01  1.2189141532910486e-01  1.2189172209927487e-01  1.2189206876817252e-01  1.2189245546424241e-01  1.2189288049109659e-01  1.2189333955661559e-01  1.2189382490013267e-01  1.2189432441214580e-01  1.2189482088471044e-01  1.2189529157383573e-01  1.2189570838615868e-01  1.2189603884114679e-01  1.2189624746547965e-01  1.2189629840863524e-01  1.2189615859005587e-01  1.2189580118795867e-01  1.2189520917420923e-01  1.2189437849439196e-01  1.2189332048932823e-01  1.2189206317462092e-01  1.2189065105568331e-01  1.2188914327604233e-01  1.2188761009060264e-01  1.2188612804460583e-01  1.2188477507489053e-01  1.2188362560713140e-01  1.2188273256878109e-01  1.2188210925885555e-01  1.2188172724386456e-01  1.2188149347047375e-01  1.2188122812463048e-01  1.2188063896420251e-01  1.2187929223418684e-01  1.2187657793184672e-01  1.2187166656004222e-01  1.2186345143673596e-01  1.2185046638312816e-01  1.2183076793620906e-01  1.2180178135283959e-01  1.2176012226150684e-01  1.2170142094251310e-01  1.2162017781639028e-01  1.2150964900128994e-01  1.2136169623754051e-01  1.2116653340289096e-01  1.2091250110946591e-01  1.2058614748594590e-01  1.2017275406087435e-01  1.1965709693107088e-01  1.1902437866916737e-01  1.1826170274191505e-01  1.1735964026358844e-01  1.1631363246711229e-01  1.1512643152518059e-01  1.1381075594746209e-01  1.1238727412262794e-01  1.1087751493968476e-01  1.0930194697253862e-01  1.0768778893937740e-01  1.0607842607723281e-01  1.0453302514288973e-01  1.0312732819348480e-01  1.0197224129213714e-01  1.0120969406297287e-01  1.0089375809434070e-01  1.0084830563384170e-01  1.0093540266265011e-01  1.0166415563563558e-01  1.0398103116059773e-01  1.0793238453079029e-01  1.1231084259782421e-01  1.1596631629340998e-01  1.1850679407169651e-01  1.2007118842283573e-01  1.2095837851113656e-01  1.2143320315094941e-01  1.2167664230779611e-01  1.2179704426924212e-01  1.2185438597191373e-01  1.2188028944193639e-01  1.2189092701363605e-01  1.2189441145484073e-01  1.2189475601388181e-01  1.2189391769009970e-01  1.2189282853116096e-01  1.2189191099765452e-01  1.2189134095992682e-01  1.8995112552092652e-01  1.8994781823009108e-01  1.2189002009532802e-01  1.2189004246757650e-01  1.2189007861621085e-01  1.2189012929215176e-01  1.2189019515324695e-01  1.2189027655807610e-01  1.2189037367565039e-01  1.2189048664522811e-01  1.2189061566722306e-01  1.2189076101747330e-01  1.2189092300325276e-01  1.2189110186985136e-01  1.2189129764870733e-01  1.2189150992629083e-01  1.2189173751370971e-01  1.2189197801191079e-01  1.2189222729607205e-01  1.2189247897759151e-01  1.2189272393916234e-01  1.2189295005800563e-01  1.2189314225623958e-01  1.2189328303937901e-01  1.2189335364929058e-01  1.2189333584163632e-01  1.2189321407507074e-01  1.2189297806973526e-01  1.2189262514421709e-01  1.2189216196357794e-01  1.2189160537501378e-01  1.2189098209912148e-01  1.2189032715936862e-01  1.2188968103058520e-01  1.2188908559738529e-01  1.2188857912496343e-01  1.2188819055196054e-01  1.2188793351441315e-01  1.2188780061912570e-01  1.2188775726739703e-01  1.2188772651093729e-01  1.2188756302236209e-01  1.2188704354555099e-01  1.2188583639814851e-01  1.2188345546486087e-01  1.2187921223096268e-01  1.2187215377688315e-01  1.2186098374443304e-01  1.2184396210815915e-01  1.2181877214014668e-01  1.2178233410860133e-01  1.2173054390776680e-01  1.2165793693833420e-01  1.2155730089017053e-01  1.2141929495133096e-01  1.2123214461941670e-01  1.2098141280535418e-01  1.2064968282058065e-01  1.2021601546301082e-01  1.1965555799429783e-01  1.1894008062852018e-01  1.1803981494495548e-01  1.1692583941909102e-01  1.1557342416873195e-01  1.1396802455326216e-01  1.1211149196803755e-01  1.1002932333314418e-01  1.0778673031607451e-01  1.0550979425573606e-01  1.0339026107252183e-01  1.0167894170916392e-01  1.0071154387210429e-01  1.0094126298264541e-01  1.0282609135180729e-01  1.0643851581823752e-01  1.1103628523306544e-01  1.1521916958876435e-01  1.1797647311386820e-01  1.1899987503443733e-01  1.1912327280969275e-01  1.1966311683123791e-01  1.1708456347642704e-01  1.0796405900687597e-01  1.0070592817414822e-01  1.0477067487659800e-01  1.1131443198341805e-01  1.1610941127279441e-01  1.1893957252196735e-01  1.2044860402706167e-01  1.2120801021396929e-01  1.2157703820849472e-01  1.2175241481234525e-01  1.2183428259964513e-01  1.2187158131114530e-01  1.2188774760879836e-01  1.2189394843985338e-01  1.2189554253390558e-01  1.2189514403812569e-01  1.2189405560584715e-01  1.2189294025221684e-01  1.2189215248585834e-01  1.8995258985924646e-01  1.8994787546608541e-01  1.2189004824711637e-01  1.2189007934879237e-01  1.2189012680462392e-01  1.2189018966933071e-01  1.2189026714331481e-01  1.2189035796089973e-01  1.2189046035597348e-01  1.2189057227770370e-01  1.2189069161219475e-01  1.2189081632492421e-01  1.2189094451157721e-01  1.2189107436037697e-01  1.2189120402114348e-01  1.2189133137227719e-01  1.2189145368566914e-01  1.2189156721536129e-01  1.2189166677159438e-01  1.2189174537924338e-01  1.2189179414936886e-01  1.2189180248194932e-01  1.2189175873225894e-01  1.2189165148774575e-01  1.2189147150497620e-01  1.2189121414756895e-01  1.2189088212635379e-01  1.2189048790741873e-01  1.2189005514939738e-01  1.2188961867549156e-01  1.2188922259231813e-01  1.2188891649972028e-01  1.2188874987422355e-01  1.2188876483945230e-01  1.2188898768472653e-01  1.2188941961858013e-01  1.2189002725942231e-01  1.2189073311438618e-01  1.2189140566374324e-01  1.2189184700755436e-01  1.2189177108714030e-01  1.2189076556171807e-01  1.2188825414919521e-01  1.2188344117374955e-01  1.2187521819614416e-01  1.2186205739241723e-01  1.2184187413100216e-01  1.2181184895964967e-01  1.2176820232401431e-01  1.2170589733532078e-01  1.2161822592021336e-01  1.2149623164290629e-01  1.2132797534378423e-01  1.2109769708859502e-01  1.2078501148106308e-01  1.2036434326622369e-01  1.1980466103821338e-01  1.1906908895738452e-01  1.1811417003426661e-01  1.1689006692659309e-01  1.1534458590155866e-01  1.1343319001240551e-01  1.1113374699500175e-01  1.0847430531615104e-01  1.0559134717862713e-01  1.0282154193736479e-01  1.0085340792527167e-01  1.0091817501173810e-01  1.0449127272019151e-01  1.1126164577140320e-01  1.1710952324772451e-01  1.1971328593785502e-01  1.2355619223030320e-01  1.1518456923374992e-01  1.0939665488625389e-01  1.4338474277646682e-01  2.0243620564630888e-01  2.7088278699219276e-01  3.2179884769992345e-01  3.3806965585079518e-01  3.1335037790124654e-01  2.2573365556695529e-01  1.1082878109344133e-01  1.1782349689792339e-01  1.0252605697845046e-01  1.0449288273014619e-01  1.1243847202846596e-01  1.1729908980910850e-01  1.1975612901855513e-01  1.2091914338097651e-01  1.2145445827252785e-01  1.2169855016630129e-01  1.2180982958071680e-01  1.2186052017331951e-01  1.2188322731658600e-01  1.2189277937433965e-01  1.2189607610273759e-01  1.2189644870064019e-01  1.2189558578461901e-01  1.2189439857458209e-01  1.2189343543906282e-01  1.8995526304122151e-01  1.8994796299499284e-01  1.2189008906520130e-01  1.2189012913570954e-01  1.2189018787753318e-01  1.2189026213891185e-01  1.2189034945985802e-01  1.2189044704985404e-01  1.2189055150753775e-01  1.2189065898861351e-01  1.2189076550359257e-01  1.2189086718089065e-01  1.2189096043389989e-01  1.2189104201112827e-01  1.2189110891781894e-01  1.2189115820404442e-01  1.2189118663712130e-01  1.2189119031444376e-01  1.2189116431406793e-01  1.2189110251790186e-01  1.2189099775673122e-01  1.2189084236255339e-01  1.2189062925253435e-01  1.2189035370441841e-01  1.2189001585499899e-01  1.2188962363797329e-01  1.2188919581857668e-01  1.2188876407856203e-01  1.2188837326898318e-01  1.2188807935879102e-01  1.2188794451536619e-01  1.2188802945632943e-01  1.2188838319607802e-01  1.2188903039973656e-01  1.2188995674331707e-01  1.2189109284595728e-01  1.2189229725515532e-01  1.2189333820172329e-01  1.2189387222664558e-01  1.2189341521837646e-01  1.2189129748832134e-01  1.2188659429117490e-01  1.2187803518600854e-01  1.2186387299922741e-01  1.2184168984308723e-01  1.2180816353105331e-01  1.2175875806346992e-01  1.2168732730479204e-01  1.2158561949994445e-01  1.2144263016434652e-01  1.2124370677037016e-01  1.2096930516571364e-01  1.2059343283637960e-01  1.2008193802345277e-01  1.1939104423666029e-01  1.1846691808124574e-01  1.1724690693963394e-01  1.1566181195276488e-01  1.1364030315019769e-01  1.1112347608529943e-01  1.0811120163428252e-01  1.0477777022233037e-01  1.0171965573456955e-01  1.0049192142987626e-01  1.0411449802078361e-01  1.1338567431062285e-01  1.1741104072953837e-01  1.1749933772343629e-01  1.2282477300882949e-01  1.1317373333571558e-01  1.6621355718133243e-01  2.4111294935661715e-01  3.1331488656625650e-01  3.7050599385757993e-01  4.1970657638123282e-01  5.1910405563909123e-01  8.4332634556383157e-01  8.8008011030267119e-01  9.0726581063280376e-01  9.1908887229779346e-01  8.6418474096431253e-01  8.7763519442359827e-01  3.9052474801036741e-01  1.7570045686027513e-01  1.1724933490045947e-01  1.0074355238936239e-01  1.0799398462376184e-01  1.1539608776172353e-01  1.1901045992568454e-01  1.2062277178938699e-01  1.2132889163542054e-01  1.2164058616843099e-01  1.2178110050738455e-01  1.2184594374275137e-01  1.2187621602437149e-01  1.2189005379942640e-01  1.2189579969428990e-01  1.2189750645864536e-01  1.2189727614569849e-01  1.2189629373195192e-01  1.2189531396010708e-01  1.8995982880624288e-01  1.8994809100194754e-01  1.2189014554922287e-01  1.2189019307619577e-01  1.2189026136132253e-01  1.2189034473277713e-01  1.2189043873930586e-01  1.2189053895165800e-01  1.2189064045020000e-01  1.2189073787634588e-01  1.2189082574613780e-01  1.2189089880742524e-01  1.2189095232539127e-01  1.2189098223695996e-01  1.2189098514205537e-01  1.2189095812338956e-01  1.2189089842836735e-01  1.2189080310482733e-01  1.2189066872511481e-01  1.2189049136196475e-01  1.2189026696851035e-01  1.2188999214223911e-01  1.2188966539406551e-01  1.2188928916168675e-01  1.2188887260196019e-01  1.2188843480399406e-01  1.2188800783206916e-01  1.2188763803665673e-01  1.2188738448992642e-01  1.2188731423659889e-01  1.2188749336544216e-01  1.2188797431065286e-01  1.2188877919407881e-01  1.2188987897851630e-01  1.2189116844440212e-01  1.2189243725032109e-01  1.2189333712317790e-01  1.2189334359643951e-01  1.2189170753252200e-01  1.2188738742620936e-01  1.2187894883829775e-01  1.2186441676811163e-01  1.2184107453161838e-01  1.2180516627958266e-01  1.2175147814564574e-01  1.2167283042091800e-01  1.2155938495906116e-01  1.2139777990010975e-01  1.2117007747536851e-01  1.2085242527710977e-01  1.2041322846064520e-01  1.1981065175064756e-01  1.1898969597769078e-01  1.1787957701399367e-01  1.1639311968145910e-01  1.1443255666775623e-01  1.1190908953647105e-01  1.0878704697925110e-01  1.0519657391630401e-01  1.0176081156695407e-01  1.0050626055905605e-01  1.0599944211826140e-01  1.1613432115915856e-01  1.1772698534351111e-01  1.1926717757123814e-01  1.0779649909335920e-01  1.6710833312733087e-01  2.6368022360894722e-01  3.4687307660835559e-01  4.1896817549870763e-01  7.4456318819165923e-01  8.7820760147428389e-01  9.0514052362535213e-01  9.0073509990296863e-01  8.7731973826332521e-01  8.8533147921741995e-01  8.8992225675193171e-01  8.9382925689667492e-01  8.9932530601962835e-01  9.0350550293181497e-01  9.0341765333145985e-01  8.8702716931804060e-01  8.6227480441264859e-01  7.7370239578109190e-01  3.8217256525394516e-01  2.3073303083409596e-01  1.4428225157737942e-01  1.1396374258388794e-01  1.1849002899188024e-01  1.2040743706637932e-01  1.2122059300934962e-01  1.2157825786572332e-01  1.2174370267505100e-01  1.2182396198342985e-01  1.2186409208501794e-01  1.2188417363154565e-01  1.2189378458942562e-01  1.2189780993210200e-01  1.2189890424380073e-01  1.2189861919649972e-01  1.2189794164600881e-01  1.8996722648129907e-01  1.8994827117759228e-01  1.2189022096179852e-01  1.2189027249918125e-01  1.2189034662652330e-01  1.2189043514349618e-01  1.2189053122424248e-01  1.2189062851023870e-01  1.2189072048655145e-01  1.2189080040039424e-01  1.2189086154309157e-01  1.2189089766845240e-01  1.2189090338463759e-01  1.2189087441364847e-01  1.2189080765451286e-01  1.2189070103147756e-01  1.2189055318154292e-01  1.2189036311972384e-01  1.2189013005542183e-01  1.2188985354657991e-01  1.2188953411403325e-01  1.2188917402849299e-01  1.2188877842871335e-01  1.2188835720797786e-01  1.2188792774184093e-01  1.2188751794434532e-01  1.2188716874020464e-01  1.2188693365301109e-01  1.2188687399019008e-01  1.2188704990813867e-01  1.2188750529553749e-01  1.2188824724192751e-01  1.2188921884791748e-01  1.2189026381916807e-01  1.2189108161381321e-01  1.2189117228456156e-01  1.2188976975201600e-01  1.2188575897066073e-01  1.2187756636528903e-01  1.2186300553309418e-01  1.2183905296955208e-01  1.2180152355436855e-01  1.2174462240646264e-01  1.2166029675038360e-01  1.2153733750662808e-01  1.2136028552304010e-01  1.2110790272876937e-01  1.2075137000528949e-01  1.2025220958281849e-01  1.1955983418035090e-01  1.1860850771491557e-01  1.1731384573153911e-01  1.1557079096491470e-01  1.1325887363367561e-01  1.1027037424728586e-01  1.0661163813129446e-01  1.0271932696101288e-01  1.0036968793650342e-01  1.0452883985658397e-01  1.1574984059278992e-01  1.1452376842854542e-01  1.1386712333959308e-01  1.0999116321903780e-01  1.9034341944863487e-01  2.9747712289935119e-01  3.8777567623903098e-01  7.7708377448186849e-01  8.8846418641046077e-01  9.1821654226753602e-01  8.7429156025380428e-01  8.8058565343673756e-01  8.8273299044272568e-01  8.8593580925419035e-01  8.9132261578285654e-01  8.9779842143832544e-01  9.0426224091885599e-01  9.0955088982479926e-01  9.1422895857364717e-01  9.1910171748213410e-01  9.2153423090206754e-01  9.1693743420055729e-01  9.0766675980616129e-01  8.8553364506472410e-01  7.9720341346578105e-01  6.7067407432422110e-01  5.9609456638942648e-01  5.4130097161464263e-01  1.9158527233176767e-01  1.1852168508452547e-01  1.2032673447271743e-01  1.2111554003944119e-01  1.2148999401097357e-01  1.2168193943342573e-01  1.2178518060401958e-01  1.2184168601576134e-01  1.2187238236163199e-01  1.2188856256180769e-01  1.2189658735314404e-01  1.2190012178258799e-01  1.2190133279028750e-01  1.2190150022320423e-01  1.8997866832199475e-01  1.8994851647611463e-01  1.2189031854154495e-01  1.2189036874194524e-01  1.2189044297136044e-01  1.2189053082911572e-01  1.2189062274640602e-01  1.2189071003485377e-01  1.2189078435255352e-01  1.2189083751880624e-01  1.2189086174169730e-01  1.2189085006960569e-01  1.2189079687057094e-01  1.2189069818468662e-01  1.2189055184567732e-01  1.2189035734137009e-01  1.2189011549978208e-01  1.2188982821091585e-01  1.2188949839539759e-01  1.2188913042243528e-01  1.2188873101652606e-01  1.2188830973919984e-01  1.21887879405