<?xml version="1.0"?>
<VTKFile type="UnstructuredGrid"  version="0.1"  >
<UnstructuredGrid>
<Piece  NumberOfPoints="5151" NumberOfCells="10000">
<Points>
<DataArray  type="Float64"  NumberOfComponents="3"  format="ascii">0 0 0  0.02 0 0  0.04 0 0  0.06 0 0  0.08 0 0  0.1 0 0  0.12 0 0  0.14 0 0  0.16 0 0  0.18 0 0  0.2 0 0  0.22 0 0  0.24 0 0  0.26 0 0  0.28 0 0  0.3 0 0  0.32 0 0  0.34 0 0  0.36 0 0  0.38 0 0  0.4 0 0  0.42 0 0  0.44 0 0  0.46 0 0  0.48 0 0  0.5 0 0  0.52 0 0  0.54 0 0  0.5600000000000001 0 0  0.58 0 0  0.6 0 0  0.62 0 0  0.64 0 0  0.66 0 0  0.68 0 0  0.7 0 0  0.72 0 0  0.74 0 0  0.76 0 0  0.78 0 0  0.8 0 0  0.82 0 0  0.84 0 0  0.86 0 0  0.88 0 0  0.9 0 0  0.92 0 0  0.9399999999999999 0 0  0.96 0 0  0.98 0 0  1 0 0  1.02 0 0  1.04 0 0  1.06 0 0  1.08 0 0  1.1 0 0  1.12 0 0  1.14 0 0  1.16 0 0  1.18 0 0  1.2 0 0  1.22 0 0  1.24 0 0  1.26 0 0  1.28 0 0  1.3 0 0  1.32 0 0  1.34 0 0  1.36 0 0  1.38 0 0  1.4 0 0  1.42 0 0  1.44 0 0  1.46 0 0  1.48 0 0  1.5 0 0  1.52 0 0  1.54 0 0  1.56 0 0  1.58 0 0  1.6 0 0  1.62 0 0  1.64 0 0  1.66 0 0  1.68 0 0  1.7 0 0  1.72 0 0  1.74 0 0  1.76 0 0  1.78 0 0  1.8 0 0  1.82 0 0  1.84 0 0  1.86 0 0  1.88 0 0  1.9 0 0  1.92 0 0  1.94 0 0  1.96 0 0  1.98 0 0  2 0 0  0 0.02 0  0.02 0.02 0  0.04 0.02 0  0.06 0.02 0  0.08 0.02 0  0.1 0.02 0  0.12 0.02 0  0.14 0.02 0  0.16 0.02 0  0.18 0.02 0  0.2 0.02 0  0.22 0.02 0  0.24 0.02 0  0.26 0.02 0  0.28 0.02 0  0.3 0.02 0  0.32 0.02 0  0.34 0.02 0  0.36 0.02 0  0.38 0.02 0  0.4 0.02 0  0.42 0.02 0  0.44 0.02 0  0.46 0.02 0  0.48 0.02 0  0.5 0.02 0  0.52 0.02 0  0.54 0.02 0  0.5600000000000001 0.02 0  0.58 0.02 0  0.6 0.02 0  0.62 0.02 0  0.64 0.02 0  0.66 0.02 0  0.68 0.02 0  0.7 0.02 0  0.72 0.02 0  0.74 0.02 0  0.76 0.02 0  0.78 0.02 0  0.8 0.02 0  0.82 0.02 0  0.84 0.02 0  0.86 0.02 0  0.88 0.02 0  0.9 0.02 0  0.92 0.02 0  0.9399999999999999 0.02 0  0.96 0.02 0  0.98 0.02 0  1 0.02 0  1.02 0.02 0  1.04 0.02 0  1.06 0.02 0  1.08 0.02 0  1.1 0.02 0  1.12 0.02 0  1.14 0.02 0  1.16 0.02 0  1.18 0.02 0  1.2 0.02 0  1.22 0.02 0  1.24 0.02 0  1.26 0.02 0  1.28 0.02 0  1.3 0.02 0  1.32 0.02 0  1.34 0.02 0  1.36 0.02 0  1.38 0.02 0  1.4 0.02 0  1.42 0.02 0  1.44 0.02 0  1.46 0.02 0  1.48 0.02 0  1.5 0.02 0  1.52 0.02 0  1.54 0.02 0  1.56 0.02 0  1.58 0.02 0  1.6 0.02 0  1.62 0.02 0  1.64 0.02 0  1.66 0.02 0  1.68 0.02 0  1.7 0.02 0  1.72 0.02 0  1.74 0.02 0  1.76 0.02 0  1.78 0.02 0  1.8 0.02 0  1.82 0.02 0  1.84 0.02 0  1.86 0.02 0  1.88 0.02 0  1.9 0.02 0  1.92 0.02 0  1.94 0.02 0  1.96 0.02 0  1.98 0.02 0  2 0.02 0  0 0.04 0  0.02 0.04 0  0.04 0.04 0  0.06 0.04 0  0.08 0.04 0  0.1 0.04 0  0.12 0.04 0  0.14 0.04 0  0.16 0.04 0  0.18 0.04 0  0.2 0.04 0  0.22 0.04 0  0.24 0.04 0  0.26 0.04 0  0.28 0.04 0  0.3 0.04 0  0.32 0.04 0  0.34 0.04 0  0.36 0.04 0  0.38 0.04 0  0.4 0.04 0  0.42 0.04 0  0.44 0.04 0  0.46 0.04 0  0.48 0.04 0  0.5 0.04 0  0.52 0.04 0  0.54 0.04 0  0.5600000000000001 0.04 0  0.58 0.04 0  0.6 0.04 0  0.62 0.04 0  0.64 0.04 0  0.66 0.04 0  0.68 0.04 0  0.7 0.04 0  0.72 0.04 0  0.74 0.04 0  0.76 0.04 0  0.78 0.04 0  0.8 0.04 0  0.82 0.04 0  0.84 0.04 0  0.86 0.04 0  0.88 0.04 0  0.9 0.04 0  0.92 0.04 0  0.9399999999999999 0.04 0  0.96 0.04 0  0.98 0.04 0  1 0.04 0  1.02 0.04 0  1.04 0.04 0  1.06 0.04 0  1.08 0.04 0  1.1 0.04 0  1.12 0.04 0  1.14 0.04 0  1.16 0.04 0  1.18 0.04 0  1.2 0.04 0  1.22 0.04 0  1.24 0.04 0  1.26 0.04 0  1.28 0.04 0  1.3 0.04 0  1.32 0.04 0  1.34 0.04 0  1.36 0.04 0  1.38 0.04 0  1.4 0.04 0  1.42 0.04 0  1.44 0.04 0  1.46 0.04 0  1.48 0.04 0  1.5 0.04 0  1.52 0.04 0  1.54 0.04 0  1.56 0.04 0  1.58 0.04 0  1.6 0.04 0  1.62 0.04 0  1.64 0.04 0  1.66 0.04 0  1.68 0.04 0  1.7 0.04 0  1.72 0.04 0  1.74 0.04 0  1.76 0.04 0  1.78 0.04 0  1.8 0.04 0  1.82 0.04 0  1.84 0.04 0  1.86 0.04 0  1.88 0.04 0  1.9 0.04 0  1.92 0.04 0  1.94 0.04 0  1.96 0.04 0  1.98 0.04 0  2 0.04 0  0 0.06 0  0.02 0.06 0  0.04 0.06 0  0.06 0.06 0  0.08 0.06 0  0.1 0.06 0  0.12 0.06 0  0.14 0.06 0  0.16 0.06 0  0.18 0.06 0  0.2 0.06 0  0.22 0.06 0  0.24 0.06 0  0.26 0.06 0  0.28 0.06 0  0.3 0.06 0  0.32 0.06 0  0.34 0.06 0  0.36 0.06 0  0.38 0.06 0  0.4 0.06 0  0.42 0.06 0  0.44 0.06 0  0.46 0.06 0  0.48 0.06 0  0.5 0.06 0  0.52 0.06 0  0.54 0.06 0  0.5600000000000001 0.06 0  0.58 0.06 0  0.6 0.06 0  0.62 0.06 0  0.64 0.06 0  0.66 0.06 0  0.68 0.06 0  0.7 0.06 0  0.72 0.06 0  0.74 0.06 0  0.76 0.06 0  0.78 0.06 0  0.8 0.06 0  0.82 0.06 0  0.84 0.06 0  0.86 0.06 0  0.88 0.06 0  0.9 0.06 0  0.92 0.06 0  0.9399999999999999 0.06 0  0.96 0.06 0  0.98 0.06 0  1 0.06 0  1.02 0.06 0  1.04 0.06 0  1.06 0.06 0  1.08 0.06 0  1.1 0.06 0  1.12 0.06 0  1.14 0.06 0  1.16 0.06 0  1.18 0.06 0  1.2 0.06 0  1.22 0.06 0  1.24 0.06 0  1.26 0.06 0  1.28 0.06 0  1.3 0.06 0  1.32 0.06 0  1.34 0.06 0  1.36 0.06 0  1.38 0.06 0  1.4 0.06 0  1.42 0.06 0  1.44 0.06 0  1.46 0.06 0  1.48 0.06 0  1.5 0.06 0  1.52 0.06 0  1.54 0.06 0  1.56 0.06 0  1.58 0.06 0  1.6 0.06 0  1.62 0.06 0  1.64 0.06 0  1.66 0.06 0  1.68 0.06 0  1.7 0.06 0  1.72 0.06 0  1.74 0.06 0  1.76 0.06 0  1.78 0.06 0  1.8 0.06 0  1.82 0.06 0  1.84 0.06 0  1.86 0.06 0  1.88 0.06 0  1.9 0.06 0  1.92 0.06 0  1.94 0.06 0  1.96 0.06 0  1.98 0.06 0  2 0.06 0  0 0.08 0  0.02 0.08 0  0.04 0.08 0  0.06 0.08 0  0.08 0.08 0  0.1 0.08 0  0.12 0.08 0  0.14 0.08 0  0.16 0.08 0  0.18 0.08 0  0.2 0.08 0  0.22 0.08 0  0.24 0.08 0  0.26 0.08 0  0.28 0.08 0  0.3 0.08 0  0.32 0.08 0  0.34 0.08 0  0.36 0.08 0  0.38 0.08 0  0.4 0.08 0  0.42 0.08 0  0.44 0.08 0  0.46 0.08 0  0.48 0.08 0  0.5 0.08 0  0.52 0.08 0  0.54 0.08 0  0.5600000000000001 0.08 0  0.58 0.08 0  0.6 0.08 0  0.62 0.08 0  0.64 0.08 0  0.66 0.08 0  0.68 0.08 0  0.7 0.08 0  0.72 0.08 0  0.74 0.08 0  0.76 0.08 0  0.78 0.08 0  0.8 0.08 0  0.82 0.08 0  0.84 0.08 0  0.86 0.08 0  0.88 0.08 0  0.9 0.08 0  0.92 0.08 0  0.9399999999999999 0.08 0  0.96 0.08 0  0.98 0.08 0  1 0.08 0  1.02 0.08 0  1.04 0.08 0  1.06 0.08 0  1.08 0.08 0  1.1 0.08 0  1.12 0.08 0  1.14 0.08 0  1.16 0.08 0  1.18 0.08 0  1.2 0.08 0  1.22 0.08 0  1.24 0.08 0  1.26 0.08 0  1.28 0.08 0  1.3 0.08 0  1.32 0.08 0  1.34 0.08 0  1.36 0.08 0  1.38 0.08 0  1.4 0.08 0  1.42 0.08 0  1.44 0.08 0  1.46 0.08 0  1.48 0.08 0  1.5 0.08 0  1.52 0.08 0  1.54 0.08 0  1.56 0.08 0  1.58 0.08 0  1.6 0.08 0  1.62 0.08 0  1.64 0.08 0  1.66 0.08 0  1.68 0.08 0  1.7 0.08 0  1.72 0.08 0  1.74 0.08 0  1.76 0.08 0  1.78 0.08 0  1.8 0.08 0  1.82 0.08 0  1.84 0.08 0  1.86 0.08 0  1.88 0.08 0  1.9 0.08 0  1.92 0.08 0  1.94 0.08 0  1.96 0.08 0  1.98 0.08 0  2 0.08 0  0 0.1 0  0.02 0.1 0  0.04 0.1 0  0.06 0.1 0  0.08 0.1 0  0.1 0.1 0  0.12 0.1 0  0.14 0.1 0  0.16 0.1 0  0.18 0.1 0  0.2 0.1 0  0.22 0.1 0  0.24 0.1 0  0.26 0.1 0  0.28 0.1 0  0.3 0.1 0  0.32 0.1 0  0.34 0.1 0  0.36 0.1 0  0.38 0.1 0  0.4 0.1 0  0.42 0.1 0  0.44 0.1 0  0.46 0.1 0  0.48 0.1 0  0.5 0.1 0  0.52 0.1 0  0.54 0.1 0  0.5600000000000001 0.1 0  0.58 0.1 0  0.6 0.1 0  0.62 0.1 0  0.64 0.1 0  0.66 0.1 0  0.68 0.1 0  0.7 0.1 0  0.72 0.1 0  0.74 0.1 0  0.76 0.1 0  0.78 0.1 0  0.8 0.1 0  0.82 0.1 0  0.84 0.1 0  0.86 0.1 0  0.88 0.1 0  0.9 0.1 0  0.92 0.1 0  0.9399999999999999 0.1 0  0.96 0.1 0  0.98 0.1 0  1 0.1 0  1.02 0.1 0  1.04 0.1 0  1.06 0.1 0  1.08 0.1 0  1.1 0.1 0  1.12 0.1 0  1.14 0.1 0  1.16 0.1 0  1.18 0.1 0  1.2 0.1 0  1.22 0.1 0  1.24 0.1 0  1.26 0.1 0  1.28 0.1 0  1.3 0.1 0  1.32 0.1 0  1.34 0.1 0  1.36 0.1 0  1.38 0.1 0  1.4 0.1 0  1.42 0.1 0  1.44 0.1 0  1.46 0.1 0  1.48 0.1 0  1.5 0.1 0  1.52 0.1 0  1.54 0.1 0  1.56 0.1 0  1.58 0.1 0  1.6 0.1 0  1.62 0.1 0  1.64 0.1 0  1.66 0.1 0  1.68 0.1 0  1.7 0.1 0  1.72 0.1 0  1.74 0.1 0  1.76 0.1 0  1.78 0.1 0  1.8 0.1 0  1.82 0.1 0  1.84 0.1 0  1.86 0.1 0  1.88 0.1 0  1.9 0.1 0  1.92 0.1 0  1.94 0.1 0  1.96 0.1 0  1.98 0.1 0  2 0.1 0  0 0.12 0  0.02 0.12 0  0.04 0.12 0  0.06 0.12 0  0.08 0.12 0  0.1 0.12 0  0.12 0.12 0  0.14 0.12 0  0.16 0.12 0  0.18 0.12 0  0.2 0.12 0  0.22 0.12 0  0.24 0.12 0  0.26 0.12 0  0.28 0.12 0  0.3 0.12 0  0.32 0.12 0  0.34 0.12 0  0.36 0.12 0  0.38 0.12 0  0.4 0.12 0  0.42 0.12 0  0.44 0.12 0  0.46 0.12 0  0.48 0.12 0  0.5 0.12 0  0.52 0.12 0  0.54 0.12 0  0.5600000000000001 0.12 0  0.58 0.12 0  0.6 0.12 0  0.62 0.12 0  0.64 0.12 0  0.66 0.12 0  0.68 0.12 0  0.7 0.12 0  0.72 0.12 0  0.74 0.12 0  0.76 0.12 0  0.78 0.12 0  0.8 0.12 0  0.82 0.12 0  0.84 0.12 0  0.86 0.12 0  0.88 0.12 0  0.9 0.12 0  0.92 0.12 0  0.9399999999999999 0.12 0  0.96 0.12 0  0.98 0.12 0  1 0.12 0  1.02 0.12 0  1.04 0.12 0  1.06 0.12 0  1.08 0.12 0  1.1 0.12 0  1.12 0.12 0  1.14 0.12 0  1.16 0.12 0  1.18 0.12 0  1.2 0.12 0  1.22 0.12 0  1.24 0.12 0  1.26 0.12 0  1.28 0.12 0  1.3 0.12 0  1.32 0.12 0  1.34 0.12 0  1.36 0.12 0  1.38 0.12 0  1.4 0.12 0  1.42 0.12 0  1.44 0.12 0  1.46 0.12 0  1.48 0.12 0  1.5 0.12 0  1.52 0.12 0  1.54 0.12 0  1.56 0.12 0  1.58 0.12 0  1.6 0.12 0  1.62 0.12 0  1.64 0.12 0  1.66 0.12 0  1.68 0.12 0  1.7 0.12 0  1.72 0.12 0  1.74 0.12 0  1.76 0.12 0  1.78 0.12 0  1.8 0.12 0  1.82 0.12 0  1.84 0.12 0  1.86 0.12 0  1.88 0.12 0  1.9 0.12 0  1.92 0.12 0  1.94 0.12 0  1.96 0.12 0  1.98 0.12 0  2 0.12 0  0 0.14 0  0.02 0.14 0  0.04 0.14 0  0.06 0.14 0  0.08 0.14 0  0.1 0.14 0  0.12 0.14 0  0.14 0.14 0  0.16 0.14 0  0.18 0.14 0  0.2 0.14 0  0.22 0.14 0  0.24 0.14 0  0.26 0.14 0  0.28 0.14 0  0.3 0.14 0  0.32 0.14 0  0.34 0.14 0  0.36 0.14 0  0.38 0.14 0  0.4 0.14 0  0.42 0.14 0  0.44 0.14 0  0.46 0.14 0  0.48 0.14 0  0.5 0.14 0  0.52 0.14 0  0.54 0.14 0  0.5600000000000001 0.14 0  0.58 0.14 0  0.6 0.14 0  0.62 0.14 0  0.64 0.14 0  0.66 0.14 0  0.68 0.14 0  0.7 0.14 0  0.72 0.14 0  0.74 0.14 0  0.76 0.14 0  0.78 0.14 0  0.8 0.14 0  0.82 0.14 0  0.84 0.14 0  0.86 0.14 0  0.88 0.14 0  0.9 0.14 0  0.92 0.14 0  0.9399999999999999 0.14 0  0.96 0.14 0  0.98 0.14 0  1 0.14 0  1.02 0.14 0  1.04 0.14 0  1.06 0.14 0  1.08 0.14 0  1.1 0.14 0  1.12 0.14 0  1.14 0.14 0  1.16 0.14 0  1.18 0.14 0  1.2 0.14 0  1.22 0.14 0  1.24 0.14 0  1.26 0.14 0  1.28 0.14 0  1.3 0.14 0  1.32 0.14 0  1.34 0.14 0  1.36 0.14 0  1.38 0.14 0  1.4 0.14 0  1.42 0.14 0  1.44 0.14 0  1.46 0.14 0  1.48 0.14 0  1
[...]
<PointData  Scalars="sols[i]"> 
<DataArray  type="Float64"  Name="sols[i]"  format="ascii">4.1410702456995633e-03  2.7641564894057297e-03  2.7641564894073118e-03  2.7641564894097716e-03  2.7641564894132988e-03  2.7641564894181022e-03  2.7641564894244179e-03  2.7641564894325269e-03  2.7641564894427253e-03  2.7641564894553303e-03  2.7641564894706921e-03  2.7641564894891938e-03  2.7641564895113011e-03  2.7641564895376073e-03  2.7641564895688631e-03  2.7641564896059801e-03  2.7641564896500413e-03  2.7641564897022009e-03  2.7641564897635329e-03  2.7641564898348908e-03  2.7641564899166752e-03  2.7641564900086160e-03  2.7641564901096580e-03  2.7641564902178679e-03  2.7641564903304510e-03  2.7641564904439513e-03  2.7641564905544831e-03  2.7641564906580639e-03  2.7641564907509883e-03  2.7641564908301081e-03  2.7641564908931671e-03  2.7641564909388983e-03  2.7641564909670646e-03  2.7641564909783945e-03  2.7641564909744259e-03  2.7641564909572352e-03  2.7641564909292723e-03  2.7641564908930656e-03  2.7641564908510280e-03  2.7641564908053107e-03  2.7641564907577108e-03  2.7641564907095817e-03  2.7641564906619072e-03  2.7641564906152843e-03  2.7641564905699833e-03  2.7641564905260311e-03  2.7641564904832857e-03  2.7641564904414629e-03  2.7641564904002658e-03  2.7641564903593823e-03  2.7641564903185230e-03  2.7641564902774599e-03  2.7641564902360343e-03  2.7641564901941620e-03  2.7641564901518339e-03  2.7641564901091089e-03  2.7641564900661255e-03  2.7641564900230003e-03  2.7641564899799679e-03  2.7641564899372672e-03  2.7641564898951338e-03  2.7641564898538201e-03  2.7641564898135736e-03  2.7641564897746334e-03  2.7641564897372211e-03  2.7641564897015383e-03  2.7641564896677588e-03  2.7641564896360299e-03  2.7641564896064849e-03  2.7641564895791552e-03  2.7641564895541202e-03  2.7641564895314039e-03  2.7641564895109806e-03  2.7641564894927998e-03  2.7641564894767875e-03  2.7641564894628399e-03  2.7641564894508338e-03  2.7641564894406263e-03  2.7641564894320611e-03  2.7641564894249713e-03  2.7641564894191864e-03  2.7641564894145564e-03  2.7641564894108641e-03  2.7641564894079844e-03  2.7641564894057822e-03  2.7641564894041177e-03  2.7641564894028765e-03  2.7641564894019602e-03  2.7641564894012871e-03  2.7641564894007897e-03  2.7641564894004132e-03  2.7641564894001183e-03  2.7641564893998763e-03  2.7641564893996886e-03  2.7641564893994960e-03  2.7641564893993277e-03  2.7641564893991950e-03  2.7641564893990914e-03  2.7641564893990194e-03  2.7641564893989812e-03  8.2495320507807481e-03  2.7641564894076744e-03  1.3837553511884767e-03  1.3837553511894594e-03  1.3837553511910374e-03  1.3837553511933246e-03  1.3837553511964480e-03  1.3837553512005387e-03  1.3837553512057337e-03  1.3837553512121663e-03  1.3837553512199596e-03  1.3837553512292449e-03  1.3837553512401695e-03  1.3837553512529282e-03  1.3837553512678065e-03  1.3837553512852136e-03  1.3837553513056928e-03  1.3837553513299265e-03  1.3837553513586897e-03  1.3837553513927475e-03  1.3837553514327431e-03  1.3837553514790511e-03  1.3837553515316165e-03  1.3837553515898505e-03  1.3837553516525720e-03  1.3837553517180086e-03  1.3837553517839123e-03  1.3837553518477341e-03  1.3837553519068459e-03  1.3837553519588006e-03  1.3837553520015457e-03  1.3837553520336249e-03  1.3837553520542822e-03  1.3837553520634704e-03  1.3837553520618083e-03  1.3837553520504662e-03  1.3837553520309890e-03  1.3837553520051442e-03  1.3837553519747525e-03  1.3837553519415269e-03  1.3837553519069794e-03  1.3837553518723557e-03  1.3837553518385856e-03  1.3837553518063093e-03  1.3837553517759005e-03  1.3837553517474920e-03  1.3837553517210403e-03  1.3837553516963760e-03  1.3837553516732395e-03  1.3837553516513400e-03  1.3837553516303878e-03  1.3837553516101049e-03  1.3837553515902519e-03  1.3837553515706385e-03  1.3837553515511254e-03  1.3837553515316245e-03  1.3837553515120948e-03  1.3837553514925442e-03  1.3837553514729924e-03  1.3837553514535010e-03  1.3837553514341675e-03  1.3837553514150795e-03  1.3837553513963404e-03  1.3837553513780555e-03  1.3837553513603290e-03  1.3837553513432600e-03  1.3837553513269397e-03  1.3837553513114486e-03  1.3837553512968555e-03  1.3837553512832236e-03  1.3837553512705788e-03  1.3837553512589483e-03  1.3837553512483589e-03  1.3837553512388015e-03  1.3837553512302590e-03  1.3837553512227026e-03  1.3837553512160898e-03  1.3837553512103685e-03  1.3837553512054766e-03  1.3837553512013436e-03  1.3837553511978956e-03  1.3837553511950541e-03  1.3837553511927485e-03  1.3837553511908869e-03  1.3837553511893972e-03  1.3837553511882282e-03  1.3837553511873136e-03  1.3837553511866023e-03  1.3837553511860507e-03  1.3837553511856231e-03  1.3837553511852900e-03  1.3837553511850287e-03  1.3837553511848201e-03  1.3837553511846510e-03  1.3837553511845194e-03  1.3837553511844034e-03  1.3837553511842997e-03  1.3837553511842225e-03  1.3837553511841627e-03  1.3837553511841212e-03  1.3837553511840976e-03  2.7641564893990033e-03  2.7641564894157868e-03  1.3837553511923822e-03  1.3837553511942830e-03  1.3837553511973561e-03  1.3837553512018072e-03  1.3837553512078503e-03  1.3837553512156845e-03  1.3837553512254740e-03  1.3837553512373270e-03  1.3837553512512921e-03  1.3837553512673875e-03  1.3837553512856433e-03  1.3837553513061794e-03  1.3837553513293130e-03  1.3837553513556453e-03  1.3837553513861164e-03  1.3837553514220162e-03  1.3837553514648962e-03  1.3837553515163694e-03  1.3837553515778584e-03  1.3837553516502733e-03  1.3837553517336745e-03  1.3837553518270328e-03  1.3837553519280951e-03  1.3837553520334039e-03  1.3837553521385327e-03  1.3837553522384667e-03  1.3837553523280868e-03  1.3837553524027092e-03  1.3837553524585467e-03  1.3837553524930926e-03  1.3837553525053155e-03  1.3837553524956574e-03  1.3837553524659030e-03  1.3837553524189015e-03  1.3837553523582007e-03  1.3837553522876925e-03  1.3837553522112627e-03  1.3837553521324857e-03  1.3837553520544301e-03  1.3837553519795386e-03  1.3837553519095709e-03  1.3837553518456466e-03  1.3837553517883161e-03  1.3837553517376418e-03  1.3837553516933237e-03  1.3837553516548107e-03  1.3837553516213850e-03  1.3837553515922694e-03  1.3837553515666904e-03  1.3837553515439122e-03  1.3837553515232833e-03  1.3837553515042504e-03  1.3837553514863641e-03  1.3837553514692790e-03  1.3837553514527436e-03  1.3837553514365951e-03  1.3837553514207174e-03  1.3837553514050634e-03  1.3837553513896443e-03  1.3837553513744781e-03  1.3837553513596117e-03  1.3837553513451053e-03  1.3837553513310254e-03  1.3837553513174408e-03  1.3837553513044176e-03  1.3837553512920171e-03  1.3837553512802948e-03  1.3837553512693040e-03  1.3837553512590665e-03  1.3837553512496088e-03  1.3837553512409625e-03  1.3837553512331255e-03  1.3837553512260909e-03  1.3837553512198422e-03  1.3837553512143510e-03  1.3837553512095774e-03  1.3837553512054731e-03  1.3837553512019796e-03  1.3837553511990323e-03  1.3837553511965636e-03  1.3837553511945114e-03  1.3837553511927942e-03  1.3837553511913507e-03  1.3837553511901436e-03  1.3837553511891209e-03  1.3837553511882488e-03  1.3837553511875018e-03  1.3837553511868606e-03  1.3837553511863124e-03  1.3837553511858466e-03  1.3837553511854557e-03  1.3837553511851315e-03  1.3837553511848750e-03  1.3837553511846633e-03  1.3837553511844899e-03  1.3837553511843639e-03  1.3837553511842726e-03  1.3837553511842128e-03  1.3837553511841815e-03  2.7641564893991443e-03  2.7641564894342026e-03  1.3837553512014425e-03  1.3837553512055587e-03  1.3837553512122121e-03  1.3837553512218339e-03  1.3837553512348623e-03  1.3837553512516781e-03  1.3837553512725462e-03  1.3837553512975624e-03  1.3837553513266398e-03  1.3837553513595666e-03  1.3837553513961233e-03  1.3837553514362848e-03  1.3837553514804803e-03  1.3837553515298393e-03  1.3837553515863579e-03  1.3837553516529318e-03  1.3837553517331669e-03  1.3837553518309324e-03  1.3837553519497308e-03  1.3837553520919235e-03  1.3837553522579300e-03  1.3837553524456137e-03  1.3837553526499548e-03  1.3837553528631167e-03  1.3837553530749941e-03  1.3837553532741367e-03  1.3837553534489302e-03  1.3837553535888635e-03  1.3837553536856380e-03  1.3837553537340164e-03  1.3837553537322392e-03  1.3837553536819932e-03  1.3837553535880212e-03  1.3837553534574313e-03  1.3837553532988242e-03  1.3837553531214257e-03  1.3837553529342796e-03  1.3837553527455749e-03  1.3837553525622114e-03  1.3837553523895539e-03  1.3837553522313571e-03  1.3837553520898711e-03  1.3837553519660331e-03  1.3837553518596930e-03  1.3837553517698951e-03  1.3837553516951385e-03  1.3837553516335890e-03  1.3837553515832915e-03  1.3837553515423184e-03  1.3837553515088567e-03  1.3837553514812922e-03  1.3837553514582394e-03  1.3837553514385553e-03  1.3837553514213258e-03  1.3837553514058486e-03  1.3837553513916087e-03  1.3837553513782214e-03  1.3837553513654345e-03  1.3837553513531059e-03  1.3837553513411400e-03  1.3837553513294980e-03  1.3837553513181755e-03  1.3837553513071910e-03  1.3837553512965769e-03  1.3837553512863719e-03  1.3837553512766187e-03  1.3837553512673591e-03  1.3837553512586398e-03  1.3837553512504814e-03  1.3837553512429132e-03  1.3837553512359739e-03  1.3837553512296714e-03  1.3837553512240116e-03  1.3837553512189903e-03  1.3837553512145899e-03  1.3837553512107798e-03  1.3837553512075151e-03  1.3837553512047374e-03  1.3837553512023779e-03  1.3837553512003624e-03  1.3837553511986214e-03  1.3837553511970707e-03  1.3837553511956496e-03  1.3837553511943292e-03  1.3837553511930746e-03  1.3837553511918746e-03  1.3837553511907314e-03  1.3837553511896565e-03  1.3837553511886654e-03  1.3837553511877726e-03  1.3837553511869898e-03  1.3837553511863226e-03  1.3837553511857775e-03  1.3837553511853343e-03  1.3837553511849812e-03  1.3837553511847225e-03  1.3837553511845393e-03  1.3837553511844227e-03  1.3837553511843663e-03  2.7641564893994613e-03  2.7641564894740566e-03  1.3837553512211895e-03  1.3837553512303067e-03  1.3837553512450658e-03  1.3837553512664415e-03  1.3837553512954166e-03  1.3837553513328322e-03  1.3837553513792297e-03  1.3837553514347112e-03  1.3837553514988857e-03  1.3837553515709871e-03  1.3837553516501625e-03  1.3837553517359786e-03  1.3837553518290763e-03  1.3837553519318168e-03  1.3837553520487510e-03  1.3837553521867311e-03  1.3837553523544767e-03  1.3837553525615216e-03  1.3837553528166485e-03  1.3837553531259644e-03  1.3837553534909372e-03  1.3837553539068378e-03  1.3837553543619187e-03  1.3837553548376052e-03  1.3837553553098388e-03  1.3837553557513797e-03  1.3837553561347306e-03  1.3837553564352242e-03  1.3837553566337240e-03  1.3837553567185813e-03  1.3837553566865533e-03  1.3837553565426305e-03  1.3837553562989684e-03  1.3837553559731294e-03  1.3837553555859619e-03  1.3837553551594782e-03  1.3837553547149475e-03  1.3837553542713774e-03  1.3837553538445276e-03  1.3837553534464103e-03  1.3837553530852071e-03  1.3837553527655633e-03  1.3837553524890804e-03  1.3837553522549097e-03  1.3837553520604077e-03  1.3837553519017451e-03  1.3837553517744197e-03  1.3837553516737123e-03  1.3837553515950185e-03  1.3837553515340596e-03  1.3837553514870439e-03  1.3837553514507311e-03  1.3837553514224458e-03  1.3837553514000455e-03  1.3837553513818682e-03  1.3837553513666686e-03  1.3837553513535148e-03  1.3837553513417571e-03  1.3837553513309660e-03  1.3837553513208422e-03  1.3837553513112038e-03  1.3837553513019471e-03  1.3837553512930218e-03  1.3837553512844128e-03  1.3837553512761288e-03  1.3837553512681927e-03  1.3837553512606373e-03  1.3837553512535072e-03  1.3837553512468285e-03  1.3837553512406405e-03  1.3837553512349979e-03  1.3837553512299255e-03  1.3837553512254467e-03  1.3837553512215711e-03  1.3837553512182890e-03  1.3837553512155664e-03  1.3837553512133442e-03  1.3837553512115364e-03  1.3837553512100363e-03  1.3837553512087240e-03  1.3837553512074878e-03  1.3837553512062051e-03  1.3837553512047963e-03  1.3837553512032307e-03  1.3837553512014945e-03  1.3837553511996160e-03  1.3837553511976514e-03  1.3837553511956719e-03  1.3837553511937524e-03  1.3837553511919602e-03  1.3837553511903474e-03  1.3837553511889466e-03  1.3837553511877791e-03  1.3837553511868270e-03  1.3837553511860741e-03  1.3837553511855144e-03  1.3837553511851176e-03  1.3837553511848654e-03  1.3837553511847440e-03  2.7641564894001062e-03  2.7641564895591422e-03  1.3837553512635469e-03  1.3837553512838045e-03  1.3837553513167413e-03  1.3837553513646370e-03  1.3837553514298088e-03  1.3837553515142504e-03  1.3837553516192150e-03  1.3837553517448420e-03  1.3837553518899815e-03  1.3837553520524104e-03  1.3837553522295396e-03  1.3837553524196655e-03  1.3837553526236199e-03  1.3837553528464634e-03  1.3837553530987533e-03  1.3837553533969048e-03  1.3837553537621977e-03  1.3837553542182437e-03  1.3837553547870998e-03  1.3837553554844788e-03  1.3837553563148641e-03  1.3837553572675805e-03  1.3837553583147338e-03  1.3837553594117250e-03  1.3837553605006026e-03  1.3837553615158316e-03  1.3837553623915766e-03  1.3837553630692851e-03  1.3837553635042495e-03  1.3837553636701903e-03  1.3837553635612410e-03  1.3837553631912798e-03  1.3837553625910529e-03  1.3837553618037250e-03  1.3837553608796736e-03  1.3837553598713419e-03  1.3837553588287317e-03  1.3837553577959378e-03  1.3837553568089528e-03  1.3837553558946653e-03  1.3837553550708707e-03  1.3837553543470799e-03  1.3837553537257962e-03  1.3837553532040027e-03  1.3837553527747124e-03  1.3837553524283903e-03  1.3837553521541624e-03  1.3837553519408189e-03  1.3837553517775485e-03  1.3837553516544269e-03  1.3837553515627288e-03  1.3837553514950550e-03  1.3837553514453348e-03  1.3837553514087376e-03  1.3837553513815284e-03  1.3837553513609052e-03  1.3837553513447955e-03  1.3837553513317317e-03  1.3837553513207099e-03  1.3837553513110345e-03  1.3837553513022561e-03  1.3837553512940908e-03  1.3837553512863717e-03  1.3837553512790098e-03  1.3837553512719685e-03  1.3837553512652488e-03  1.3837553512588763e-03  1.3837553512529039e-03  1.3837553512473745e-03  1.3837553512423557e-03  1.3837553512379348e-03  1.3837553512341730e-03  1.3837553512311264e-03  1.3837553512288268e-03  1.3837553512272684e-03  1.3837553512263952e-03  1.3837553512260942e-03  1.3837553512261937e-03  1.3837553512264728e-03  1.3837553512266827e-03  1.3837553512265836e-03  1.3837553512259474e-03  1.3837553512246264e-03  1.3837553512225749e-03  1.3837553512198177e-03  1.3837553512164704e-03  1.3837553512127110e-03  1.3837553512087489e-03  1.3837553512047948e-03  1.3837553512010331e-03  1.3837553511976070e-03  1.3837553511946085e-03  1.3837553511920880e-03  1.3837553511900321e-03  1.3837553511884121e-03  1.3837553511871982e-03  1.3837553511863343e-03  1.3837553511857801e-03  1.3837553511855073e-03  2.7641564894013955e-03  2.7641564897396701e-03  1.3837553513538230e-03  1.3837553513988208e-03  1.3837553514724551e-03  1.3837553515801541e-03  1.3837553517275167e-03  1.3837553519194183e-03  1.3837553521589370e-03  1.3837553524463373e-03  1.3837553527785149e-03  1.3837553531493834e-03  1.3837553535515524e-03  1.3837553539794295e-03  1.3837553544334006e-03  1.3837553549242263e-03  1.3837553554764399e-03  1.3837553561294651e-03  1.3837553569353480e-03  1.3837553579526189e-03  1.3837553592366573e-03  1.3837553608277535e-03  1.3837553627388936e-03  1.3837553649458654e-03  1.3837553673820870e-03  1.3837553699399506e-03  1.3837553724792672e-03  1.3837553748417613e-03  1.3837553768692437e-03  1.3837553784222967e-03  1.3837553793961995e-03  1.3837553797316627e-03  1.3837553794190363e-03  1.3837553784960066e-03  1.3837553770399520e-03  1.3837553751567071e-03  1.3837553729677656e-03  1.3837553705978644e-03  1.3837553681643603e-03  1.3837553657693189e-03  1.3837553634947041e-03  1.3837553614004642e-03  1.3837553595250009e-03  1.3837553578874076e-03  1.3837553564907221e-03  1.3837553553255925e-03  1.3837553543739501e-03  1.3837553536123306e-03  1.3837553530146607e-03  1.3837553525544973e-03  1.3837553522066557e-03  1.3837553519482739e-03  1.3837553517594412e-03  1.3837553516234270e-03  1.3837553515266229e-03  1.3837553514582915e-03  1.3837553514101978e-03  1.3837553513762033e-03  1.3837553513518200e-03  1.3837553513338756e-03  1.3837553513201875e-03  1.3837553513092620e-03  1.3837553513001190e-03  1.3837553512921306e-03  1.3837553512849113e-03  1.3837553512782387e-03  1.3837553512720015e-03  1.3837553512661685e-03  1.3837553512607646e-03  1.3837553512558675e-03  1.3837553512515671e-03  1.3837553512479968e-03  1.3837553512453219e-03  1.3837553512436856e-03  1.3837553512432168e-03  1.3837553512439950e-03  1.3837553512460170e-03  1.3837553512491651e-03  1.3837553512531858e-03  1.3837553512576850e-03  1.3837553512621528e-03  1.3837553512660095e-03  1.3837553512686901e-03  1.3837553512696930e-03  1.3837553512687001e-03  1.3837553512656227e-03  1.3837553512605790e-03  1.3837553512538985e-03  1.3837553512460546e-03  1.3837553512375876e-03  1.3837553512290285e-03  1.3837553512208365e-03  1.3837553512133594e-03  1.3837553512068177e-03  1.3837553512013204e-03  1.3837553511968543e-03  1.3837553511933534e-03  1.3837553511907288e-03  1.3837553511888605e-03  1.3837553511876529e-03  1.3837553511870404e-03  2.7641564894039629e-03  2.7641564901208630e-03  1.3837553515453720e-03  1.3837553516452290e-03  1.3837553518098956e-03  1.3837553520524197e-03  1.3837553523864802e-03  1.3837553528241911e-03  1.3837553533733299e-03  1.3837553540345905e-03  1.3837553547998852e-03  1.3837553556529359e-03  1.3837553565732138e-03  1.3837553575436184e-03  1.3837553585610957e-03  1.3837553596480348e-03  1.3837553608613180e-03  1.3837553622956531e-03  1.3837553640784249e-03  1.3837553663547735e-03  1.3837553692637159e-03  1.3837553729083376e-03  1.3837553773251906e-03  1.3837553824593567e-03  1.3837553881514498e-03  1.3837553941411101e-03  1.3837554000883674e-03  1.3837554056101568e-03  1.3837554103257512e-03  1.3837554139028750e-03  1.3837554160963008e-03  1.3837554167729208e-03  1.3837554159203686e-03  1.3837554136396574e-03  1.3837554101250235e-03  1.3837554056356043e-03  1.3837554004640358e-03  1.3837553949065844e-03  1.3837553892382080e-03  1.3837553836945776e-03  1.3837553784617062e-03  1.3837553736725395e-03  1.3837553694091272e-03  1.3837553657086873e-03  1.3837553625718239e-03  1.3837553599714710e-03  1.3837553578615778e-03  1.3837553561848169e-03  1.3837553548789714e-03  1.3837553538819261e-03  1.3837553531352458e-03  1.3837553525864700e-03  1.3837553521903617e-03  1.3837553519092743e-03  1.3837553517128806e-03  1.3837553515774815e-03  1.3837553514850795e-03  1.3837553514223786e-03  1.3837553513797796e-03  1.3837553513505430e-03  1.3837553513300557e-03  1.3837553513152019e-03  1.3837553513039403e-03  1.3837553512949655e-03  1.3837553512874698e-03  1.3837553512809800e-03  1.3837553512752530e-03  1.3837553512702071e-03  1.3837553512658820e-03  1.3837553512624232e-03  1.3837553512600375e-03  1.3837553512590125e-03  1.3837553512596990e-03  1.3837553512624360e-03  1.3837553512675296e-03  1.3837553512751764e-03  1.3837553512853820e-03  1.3837553512978822e-03  1.3837553513120831e-03  1.3837553513270497e-03  1.3837553513415535e-03  1.3837553513541990e-03  1.3837553513636127e-03  1.3837553513686245e-03  1.3837553513684955e-03  1.3837553513630445e-03  1.3837553513526366e-03  1.3837553513381378e-03  1.3837553513207522e-03  1.3837553513018259e-03  1.3837553512826561e-03  1.3837553512643416e-03  1.3837553512476934e-03  1.3837553512332094e-03  1.3837553512211056e-03  1.3837553512113471e-03  1.3837553512037564e-03  1.3837553511980918e-03  1.3837553511940731e-03  1.3837553511914682e-03  1.3837553511901223e-03  2.7641564894090808e-03  2.7641564909217787e-03  1.3837553519500019e-03  1.3837553521712841e-03  1.3837553525392688e-03  1.3837553530854376e-03  1.3837553538434166e-03  1.3837553548435647e-03  1.3837553561058657e-03  1.3837553576325420e-03  1.3837553594029854e-03  1.3837553613742961e-03  1.3837553634904150e-03  1.3837553657011269e-03  1.3837553679890723e-03  1.3837553703992885e-03  1.3837553730631932e-03  1.3837553762082863e-03  1.3837553801465076e-03  1.3837553852379021e-03  1.3837553918314316e-03  1.3837554001904842e-03  1.38375541041