<?xml version="1.0"?>
<VTKFile type="UnstructuredGrid"  version="0.1"  >
<UnstructuredGrid>
<Piece  NumberOfPoints="5151" NumberOfCells="10000">
<Points>
<DataArray  type="Float64"  NumberOfComponents="3"  format="ascii">0 0 0  0.02 0 0  0.04 0 0  0.06 0 0  0.08 0 0  0.1 0 0  0.12 0 0  0.14 0 0  0.16 0 0  0.18 0 0  0.2 0 0  0.22 0 0  0.24 0 0  0.26 0 0  0.28 0 0  0.3 0 0  0.32 0 0  0.34 0 0  0.36 0 0  0.38 0 0  0.4 0 0  0.42 0 0  0.44 0 0  0.46 0 0  0.48 0 0  0.5 0 0  0.52 0 0  0.54 0 0  0.5600000000000001 0 0  0.58 0 0  0.6 0 0  0.62 0 0  0.64 0 0  0.66 0 0  0.68 0 0  0.7 0 0  0.72 0 0  0.74 0 0  0.76 0 0  0.78 0 0  0.8 0 0  0.82 0 0  0.84 0 0  0.86 0 0  0.88 0 0  0.9 0 0  0.92 0 0  0.9399999999999999 0 0  0.96 0 0  0.98 0 0  1 0 0  1.02 0 0  1.04 0 0  1.06 0 0  1.08 0 0  1.1 0 0  1.12 0 0  1.14 0 0  1.16 0 0  1.18 0 0  1.2 0 0  1.22 0 0  1.24 0 0  1.26 0 0  1.28 0 0  1.3 0 0  1.32 0 0  1.34 0 0  1.36 0 0  1.38 0 0  1.4 0 0  1.42 0 0  1.44 0 0  1.46 0 0  1.48 0 0  1.5 0 0  1.52 0 0  1.54 0 0  1.56 0 0  1.58 0 0  1.6 0 0  1.62 0 0  1.64 0 0  1.66 0 0  1.68 0 0  1.7 0 0  1.72 0 0  1.74 0 0  1.76 0 0  1.78 0 0  1.8 0 0  1.82 0 0  1.84 0 0  1.86 0 0  1.88 0 0  1.9 0 0  1.92 0 0  1.94 0 0  1.96 0 0  1.98 0 0  2 0 0  0 0.02 0  0.02 0.02 0  0.04 0.02 0  0.06 0.02 0  0.08 0.02 0  0.1 0.02 0  0.12 0.02 0  0.14 0.02 0  0.16 0.02 0  0.18 0.02 0  0.2 0.02 0  0.22 0.02 0  0.24 0.02 0  0.26 0.02 0  0.28 0.02 0  0.3 0.02 0  0.32 0.02 0  0.34 0.02 0  0.36 0.02 0  0.38 0.02 0  0.4 0.02 0  0.42 0.02 0  0.44 0.02 0  0.46 0.02 0  0.48 0.02 0  0.5 0.02 0  0.52 0.02 0  0.54 0.02 0  0.5600000000000001 0.02 0  0.58 0.02 0  0.6 0.02 0  0.62 0.02 0  0.64 0.02 0  0.66 0.02 0  0.68 0.02 0  0.7 0.02 0  0.72 0.02 0  0.74 0.02 0  0.76 0.02 0  0.78 0.02 0  0.8 0.02 0  0.82 0.02 0  0.84 0.02 0  0.86 0.02 0  0.88 0.02 0  0.9 0.02 0  0.92 0.02 0  0.9399999999999999 0.02 0  0.96 0.02 0  0.98 0.02 0  1 0.02 0  1.02 0.02 0  1.04 0.02 0  1.06 0.02 0  1.08 0.02 0  1.1 0.02 0  1.12 0.02 0  1.14 0.02 0  1.16 0.02 0  1.18 0.02 0  1.2 0.02 0  1.22 0.02 0  1.24 0.02 0  1.26 0.02 0  1.28 0.02 0  1.3 0.02 0  1.32 0.02 0  1.34 0.02 0  1.36 0.02 0  1.38 0.02 0  1.4 0.02 0  1.42 0.02 0  1.44 0.02 0  1.46 0.02 0  1.48 0.02 0  1.5 0.02 0  1.52 0.02 0  1.54 0.02 0  1.56 0.02 0  1.58 0.02 0  1.6 0.02 0  1.62 0.02 0  1.64 0.02 0  1.66 0.02 0  1.68 0.02 0  1.7 0.02 0  1.72 0.02 0  1.74 0.02 0  1.76 0.02 0  1.78 0.02 0  1.8 0.02 0  1.82 0.02 0  1.84 0.02 0  1.86 0.02 0  1.88 0.02 0  1.9 0.02 0  1.92 0.02 0  1.94 0.02 0  1.96 0.02 0  1.98 0.02 0  2 0.02 0  0 0.04 0  0.02 0.04 0  0.04 0.04 0  0.06 0.04 0  0.08 0.04 0  0.1 0.04 0  0.12 0.04 0  0.14 0.04 0  0.16 0.04 0  0.18 0.04 0  0.2 0.04 0  0.22 0.04 0  0.24 0.04 0  0.26 0.04 0  0.28 0.04 0  0.3 0.04 0  0.32 0.04 0  0.34 0.04 0  0.36 0.04 0  0.38 0.04 0  0.4 0.04 0  0.42 0.04 0  0.44 0.04 0  0.46 0.04 0  0.48 0.04 0  0.5 0.04 0  0.52 0.04 0  0.54 0.04 0  0.5600000000000001 0.04 0  0.58 0.04 0  0.6 0.04 0  0.62 0.04 0  0.64 0.04 0  0.66 0.04 0  0.68 0.04 0  0.7 0.04 0  0.72 0.04 0  0.74 0.04 0  0.76 0.04 0  0.78 0.04 0  0.8 0.04 0  0.82 0.04 0  0.84 0.04 0  0.86 0.04 0  0.88 0.04 0  0.9 0.04 0  0.92 0.04 0  0.9399999999999999 0.04 0  0.96 0.04 0  0.98 0.04 0  1 0.04 0  1.02 0.04 0  1.04 0.04 0  1.06 0.04 0  1.08 0.04 0  1.1 0.04 0  1.12 0.04 0  1.14 0.04 0  1.16 0.04 0  1.18 0.04 0  1.2 0.04 0  1.22 0.04 0  1.24 0.04 0  1.26 0.04 0  1.28 0.04 0  1.3 0.04 0  1.32 0.04 0  1.34 0.04 0  1.36 0.04 0  1.38 0.04 0  1.4 0.04 0  1.42 0.04 0  1.44 0.04 0  1.46 0.04 0  1.48 0.04 0  1.5 0.04 0  1.52 0.04 0  1.54 0.04 0  1.56 0.04 0  1.58 0.04 0  1.6 0.04 0  1.62 0.04 0  1.64 0.04 0  1.66 0.04 0  1.68 0.04 0  1.7 0.04 0  1.72 0.04 0  1.74 0.04 0  1.76 0.04 0  1.78 0.04 0  1.8 0.04 0  1.82 0.04 0  1.84 0.04 0  1.86 0.04 0  1.88 0.04 0  1.9 0.04 0  1.92 0.04 0  1.94 0.04 0  1.96 0.04 0  1.98 0.04 0  2 0.04 0  0 0.06 0  0.02 0.06 0  0.04 0.06 0  0.06 0.06 0  0.08 0.06 0  0.1 0.06 0  0.12 0.06 0  0.14 0.06 0  0.16 0.06 0  0.18 0.06 0  0.2 0.06 0  0.22 0.06 0  0.24 0.06 0  0.26 0.06 0  0.28 0.06 0  0.3 0.06 0  0.32 0.06 0  0.34 0.06 0  0.36 0.06 0  0.38 0.06 0  0.4 0.06 0  0.42 0.06 0  0.44 0.06 0  0.46 0.06 0  0.48 0.06 0  0.5 0.06 0  0.52 0.06 0  0.54 0.06 0  0.5600000000000001 0.06 0  0.58 0.06 0  0.6 0.06 0  0.62 0.06 0  0.64 0.06 0  0.66 0.06 0  0.68 0.06 0  0.7 0.06 0  0.72 0.06 0  0.74 0.06 0  0.76 0.06 0  0.78 0.06 0  0.8 0.06 0  0.82 0.06 0  0.84 0.06 0  0.86 0.06 0  0.88 0.06 0  0.9 0.06 0  0.92 0.06 0  0.9399999999999999 0.06 0  0.96 0.06 0  0.98 0.06 0  1 0.06 0  1.02 0.06 0  1.04 0.06 0  1.06 0.06 0  1.08 0.06 0  1.1 0.06 0  1.12 0.06 0  1.14 0.06 0  1.16 0.06 0  1.18 0.06 0  1.2 0.06 0  1.22 0.06 0  1.24 0.06 0  1.26 0.06 0  1.28 0.06 0  1.3 0.06 0  1.32 0.06 0  1.34 0.06 0  1.36 0.06 0  1.38 0.06 0  1.4 0.06 0  1.42 0.06 0  1.44 0.06 0  1.46 0.06 0  1.48 0.06 0  1.5 0.06 0  1.52 0.06 0  1.54 0.06 0  1.56 0.06 0  1.58 0.06 0  1.6 0.06 0  1.62 0.06 0  1.64 0.06 0  1.66 0.06 0  1.68 0.06 0  1.7 0.06 0  1.72 0.06 0  1.74 0.06 0  1.76 0.06 0  1.78 0.06 0  1.8 0.06 0  1.82 0.06 0  1.84 0.06 0  1.86 0.06 0  1.88 0.06 0  1.9 0.06 0  1.92 0.06 0  1.94 0.06 0  1.96 0.06 0  1.98 0.06 0  2 0.06 0  0 0.08 0  0.02 0.08 0  0.04 0.08 0  0.06 0.08 0  0.08 0.08 0  0.1 0.08 0  0.12 0.08 0  0.14 0.08 0  0.16 0.08 0  0.18 0.08 0  0.2 0.08 0  0.22 0.08 0  0.24 0.08 0  0.26 0.08 0  0.28 0.08 0  0.3 0.08 0  0.32 0.08 0  0.34 0.08 0  0.36 0.08 0  0.38 0.08 0  0.4 0.08 0  0.42 0.08 0  0.44 0.08 0  0.46 0.08 0  0.48 0.08 0  0.5 0.08 0  0.52 0.08 0  0.54 0.08 0  0.5600000000000001 0.08 0  0.58 0.08 0  0.6 0.08 0  0.62 0.08 0  0.64 0.08 0  0.66 0.08 0  0.68 0.08 0  0.7 0.08 0  0.72 0.08 0  0.74 0.08 0  0.76 0.08 0  0.78 0.08 0  0.8 0.08 0  0.82 0.08 0  0.84 0.08 0  0.86 0.08 0  0.88 0.08 0  0.9 0.08 0  0.92 0.08 0  0.9399999999999999 0.08 0  0.96 0.08 0  0.98 0.08 0  1 0.08 0  1.02 0.08 0  1.04 0.08 0  1.06 0.08 0  1.08 0.08 0  1.1 0.08 0  1.12 0.08 0  1.14 0.08 0  1.16 0.08 0  1.18 0.08 0  1.2 0.08 0  1.22 0.08 0  1.24 0.08 0  1.26 0.08 0  1.28 0.08 0  1.3 0.08 0  1.32 0.08 0  1.34 0.08 0  1.36 0.08 0  1.38 0.08 0  1.4 0.08 0  1.42 0.08 0  1.44 0.08 0  1.46 0.08 0  1.48 0.08 0  1.5 0.08 0  1.52 0.08 0  1.54 0.08 0  1.56 0.08 0  1.58 0.08 0  1.6 0.08 0  1.62 0.08 0  1.64 0.08 0  1.66 0.08 0  1.68 0.08 0  1.7 0.08 0  1.72 0.08 0  1.74 0.08 0  1.76 0.08 0  1.78 0.08 0  1.8 0.08 0  1.82 0.08 0  1.84 0.08 0  1.86 0.08 0  1.88 0.08 0  1.9 0.08 0  1.92 0.08 0  1.94 0.08 0  1.96 0.08 0  1.98 0.08 0  2 0.08 0  0 0.1 0  0.02 0.1 0  0.04 0.1 0  0.06 0.1 0  0.08 0.1 0  0.1 0.1 0  0.12 0.1 0  0.14 0.1 0  0.16 0.1 0  0.18 0.1 0  0.2 0.1 0  0.22 0.1 0  0.24 0.1 0  0.26 0.1 0  0.28 0.1 0  0.3 0.1 0  0.32 0.1 0  0.34 0.1 0  0.36 0.1 0  0.38 0.1 0  0.4 0.1 0  0.42 0.1 0  0.44 0.1 0  0.46 0.1 0  0.48 0.1 0  0.5 0.1 0  0.52 0.1 0  0.54 0.1 0  0.5600000000000001 0.1 0  0.58 0.1 0  0.6 0.1 0  0.62 0.1 0  0.64 0.1 0  0.66 0.1 0  0.68 0.1 0  0.7 0.1 0  0.72 0.1 0  0.74 0.1 0  0.76 0.1 0  0.78 0.1 0  0.8 0.1 0  0.82 0.1 0  0.84 0.1 0  0.86 0.1 0  0.88 0.1 0  0.9 0.1 0  0.92 0.1 0  0.9399999999999999 0.1 0  0.96 0.1 0  0.98 0.1 0  1 0.1 0  1.02 0.1 0  1.04 0.1 0  1.06 0.1 0  1.08 0.1 0  1.1 0.1 0  1.12 0.1 0  1.14 0.1 0  1.16 0.1 0  1.18 0.1 0  1.2 0.1 0  1.22 0.1 0  1.24 0.1 0  1.26 0.1 0  1.28 0.1 0  1.3 0.1 0  1.32 0.1 0  1.34 0.1 0  1.36 0.1 0  1.38 0.1 0  1.4 0.1 0  1.42 0.1 0  1.44 0.1 0  1.46 0.1 0  1.48 0.1 0  1.5 0.1 0  1.52 0.1 0  1.54 0.1 0  1.56 0.1 0  1.58 0.1 0  1.6 0.1 0  1.62 0.1 0  1.64 0.1 0  1.66 0.1 0  1.68 0.1 0  1.7 0.1 0  1.72 0.1 0  1.74 0.1 0  1.76 0.1 0  1.78 0.1 0  1.8 0.1 0  1.82 0.1 0  1.84 0.1 0  1.86 0.1 0  1.88 0.1 0  1.9 0.1 0  1.92 0.1 0  1.94 0.1 0  1.96 0.1 0  1.98 0.1 0  2 0.1 0  0 0.12 0  0.02 0.12 0  0.04 0.12 0  0.06 0.12 0  0.08 0.12 0  0.1 0.12 0  0.12 0.12 0  0.14 0.12 0  0.16 0.12 0  0.18 0.12 0  0.2 0.12 0  0.22 0.12 0  0.24 0.12 0  0.26 0.12 0  0.28 0.12 0  0.3 0.12 0  0.32 0.12 0  0.34 0.12 0  0.36 0.12 0  0.38 0.12 0  0.4 0.12 0  0.42 0.12 0  0.44 0.12 0  0.46 0.12 0  0.48 0.12 0  0.5 0.12 0  0.52 0.12 0  0.54 0.12 0  0.5600000000000001 0.12 0  0.58 0.12 0  0.6 0.12 0  0.62 0.12 0  0.64 0.12 0  0.66 0.12 0  0.68 0.12 0  0.7 0.12 0  0.72 0.12 0  0.74 0.12 0  0.76 0.12 0  0.78 0.12 0  0.8 0.12 0  0.82 0.12 0  0.84 0.12 0  0.86 0.12 0  0.88 0.12 0  0.9 0.12 0  0.92 0.12 0  0.9399999999999999 0.12 0  0.96 0.12 0  0.98 0.12 0  1 0.12 0  1.02 0.12 0  1.04 0.12 0  1.06 0.12 0  1.08 0.12 0  1.1 0.12 0  1.12 0.12 0  1.14 0.12 0  1.16 0.12 0  1.18 0.12 0  1.2 0.12 0  1.22 0.12 0  1.24 0.12 0  1.26 0.12 0  1.28 0.12 0  1.3 0.12 0  1.32 0.12 0  1.34 0.12 0  1.36 0.12 0  1.38 0.12 0  1.4 0.12 0  1.42 0.12 0  1.44 0.12 0  1.46 0.12 0  1.48 0.12 0  1.5 0.12 0  1.52 0.12 0  1.54 0.12 0  1.56 0.12 0  1.58 0.12 0  1.6 0.12 0  1.62 0.12 0  1.64 0.12 0  1.66 0.12 0  1.68 0.12 0  1.7 0.12 0  1.72 0.12 0  1.74 0.12 0  1.76 0.12 0  1.78 0.12 0  1.8 0.12 0  1.82 0.12 0  1.84 0.12 0  1.86 0.12 0  1.88 0.12 0  1.9 0.12 0  1.92 0.12 0  1.94 0.12 0  1.96 0.12 0  1.98 0.12 0  2 0.12 0  0 0.14 0  0.02 0.14 0  0.04 0.14 0  0.06 0.14 0  0.08 0.14 0  0.1 0.14 0  0.12 0.14 0  0.14 0.14 0  0.16 0.14 0  0.18 0.14 0  0.2 0.14 0  0.22 0.14 0  0.24 0.14 0  0.26 0.14 0  0.28 0.14 0  0.3 0.14 0  0.32 0.14 0  0.34 0.14 0  0.36 0.14 0  0.38 0.14 0  0.4 0.14 0  0.42 0.14 0  0.44 0.14 0  0.46 0.14 0  0.48 0.14 0  0.5 0.14 0  0.52 0.14 0  0.54 0.14 0  0.5600000000000001 0.14 0  0.58 0.14 0  0.6 0.14 0  0.62 0.14 0  0.64 0.14 0  0.66 0.14 0  0.68 0.14 0  0.7 0.14 0  0.72 0.14 0  0.74 0.14 0  0.76 0.14 0  0.78 0.14 0  0.8 0.14 0  0.82 0.14 0  0.84 0.14 0  0.86 0.14 0  0.88 0.14 0  0.9 0.14 0  0.92 0.14 0  0.9399999999999999 0.14 0  0.96 0.14 0  0.98 0.14 0  1 0.14 0  1.02 0.14 0  1.04 0.14 0  1.06 0.14 0  1.08 0.14 0  1.1 0.14 0  1.12 0.14 0  1.14 0.14 0  1.16 0.14 0  1.18 0.14 0  1.2 0.14 0  1.22 0.14 0  1.24 0.14 0  1.26 0.14 0  1.28 0.14 0  1.3 0.14 0  1.32 0.14 0  1.34 0.14 0  1.36 0.14 0  1.38 0.14 0  1.4 0.14 0  1.42 0.14 0  1.44 0.14 0  1.46 0.14 0  1.48 0.14 0  1
[...]
<PointData  Scalars="sols[i]"> 
<DataArray  type="Float64"  Name="sols[i]"  format="ascii">2.0894630163658665e-01  1.5089714079316149e-01  1.5089713314522205e-01  1.5089711723084517e-01  1.5089708812816738e-01  1.5089703931806567e-01  1.5089696252614659e-01  1.5089684818338378e-01  1.5089668648668747e-01  1.5089646874049828e-01  1.5089618869303606e-01  1.5089584369649200e-01  1.5089543560715007e-01  1.5089497138467556e-01  1.5089446336353191e-01  1.5089392916913597e-01  1.5089339124828474e-01  1.5089287598513967e-01  1.5089241238535223e-01  1.5089203033371260e-01  1.5089175846365344e-01  1.5089162171412032e-01  1.5089163867860139e-01  1.5089181885296601e-01  1.5089215983601378e-01  1.5089264439627048e-01  1.5089323705704855e-01  1.5089387944466545e-01  1.5089448309087888e-01  1.5089491772054897e-01  1.5089499239109838e-01  1.5089442636455075e-01  1.5089280657592524e-01  1.5088952946453577e-01  1.5088372749730963e-01  1.5087418621897777e-01  1.5085926832227348e-01  1.5083688043617499e-01  1.5080454952260300e-01  1.5075971674629135e-01  1.5070038745864828e-01  1.5062623096985134e-01  1.5053994100196405e-01  1.5044794061093603e-01  1.5035890924403000e-01  1.5027996176615374e-01  1.5021358413045766e-01  1.5015805947472147e-01  1.5010891132365806e-01  1.5006083616031080e-01  1.5001062323559167e-01  1.4996076846588458e-01  1.4991961188206721e-01  1.4989788554126410e-01  1.4990545737185981e-01  1.4994869150841830e-01  1.5002769363033952e-01  1.5013525214040530e-01  1.5025900362284839e-01  1.5038543500142199e-01  1.5050335251702193e-01  1.5060553997386583e-01  1.5068871780810286e-01  1.5075258565336158e-01  1.5079868474779490e-01  1.5082947882483608e-01  1.5084775286820054e-01  1.5085627365848792e-01  1.5085761652732815e-01  1.5085408026308897e-01  1.5084764381353524e-01  1.5083994417535571e-01  1.5083226959625937e-01  1.5082556782032225e-01  1.5082046934973187e-01  1.5081732386474719e-01  1.5081624609707206e-01  1.5081716649076285e-01  1.5081988203334037e-01  1.5082410343683045e-01  1.5082949602583604e-01  1.5083571292467496e-01  1.5084242021002420e-01  1.5084931449977959e-01  1.5085613395878039e-01  1.5086266394853826e-01  1.5086873858861172e-01  1.5087423939566466e-01  1.5087909198002622e-01  1.5088326155428239e-01  1.5088674777714228e-01  1.5088957924173657e-01  1.5089180773847627e-01  1.5089350229625992e-01  1.5089474295354519e-01  1.5089561425664177e-01  1.5089619863803330e-01  1.5089657004923818e-01  1.5089678835624262e-01  1.5089689492623148e-01  3.1497134729696857e-01  1.5089714052324638e-01  8.0969120303544764e-02  8.0969115080129592e-02  8.0969103964538991e-02  8.0969083887534210e-02  8.0969051379576246e-02  8.0969002558173464e-02  8.0968933169421567e-02  8.0968838888910738e-02  8.0968715828149129e-02  8.0968561117594748e-02  8.0968373462563678e-02  8.0968153608921484e-02  8.0967904683750480e-02  8.0967632390415656e-02  8.0967345042672847e-02  8.0967053423848356e-02  8.0966770458460915e-02  8.0966510687231860e-02  8.0966289542951236e-02  8.0966122433090648e-02  8.0966023642213225e-02  8.0966005067443725e-02  8.0966074785263117e-02  8.0966235407469833e-02  8.0966482107838481e-02  8.0966800081344742e-02  8.0967161035213703e-02  8.0967518119645546e-02  8.0967798519623921e-02  8.0967892805050956e-02  8.0967640156988124e-02  8.0966808863182596e-02  8.0965072158487875e-02  8.0961980810887332e-02  8.0956936215313358e-02  8.0949171798135336e-02  8.0937757237519850e-02  8.0921650663663636e-02  8.0899839088194689e-02  8.0871622305943969e-02  8.0837085170399198e-02  8.0797685832479399e-02  8.0756527785904086e-02  8.0717551599790494e-02  8.0683610741664635e-02  8.0655081577605856e-02  8.0630423045130989e-02  8.0607107609551948e-02  8.0582501391176717e-02  8.0555024013471310e-02  8.0525712676935063e-02  8.0498570904837086e-02  8.0479089238804771e-02  8.0472722552474438e-02  8.0483649101125002e-02  8.0513312891623168e-02  8.0559488541258148e-02  8.0616895578350306e-02  8.0678925935390583e-02  8.0739446992933658e-02  8.0793954391604805e-02  8.0839899136672375e-02  8.0876421221804426e-02  8.0903838323758720e-02  8.0923147244571891e-02  8.0935652358243473e-02  8.0942731804027807e-02  8.0945706729095276e-02  8.0945773558149373e-02  8.0943970695548942e-02  8.0941163920647929e-02  8.0938043279753971e-02  8.0935128454482017e-02  8.0932781038045076e-02  8.0931222317307649e-02  8.0930554916520722e-02  8.0930786457128132e-02  8.0931853402944842e-02  8.0933643504288222e-02  8.0936015657702448e-02  8.0938816463566488e-02  8.0941893206781898e-02  8.0945103348528752e-02  8.0948320873069843e-02  8.0951439981304649e-02  8.0954376677018713e-02  8.0957068775093260e-02  8.0959474797243275e-02  8.0961572131460977e-02  8.0963354733650655e-02  8.0964830557716319e-02  8.0966018825138153e-02  8.0966947197528963e-02  8.0967648905070133e-02  8.0968159911791765e-02  8.0968516242450550e-02  8.0968751583228901e-02  8.0968895103900901e-02  8.0968969294303084e-02  1.5089689617465096e-01  1.5089713195374832e-01  8.0969114630105615e-02  8.0969103564586697e-02  8.0969081838766985e-02  8.0969045691730801e-02  8.0968991679581159e-02  8.0968916893816523e-02  8.0968818876230170e-02  8.0968695571844926e-02  8.0968545463150521e-02  8.0968367856546972e-02  8.0968163237020760e-02  8.0967933612726251e-02  8.0967682792443138e-02  8.0967416557660779e-02  8.0967142703306211e-02  8.0966870928053547e-02  8.0966612558845186e-02  8.0966380096134882e-02  8.0966186566459097e-02  8.0966044665659903e-02  8.0965965666181416e-02  8.0965958040671207e-02  8.0966025716355666e-02  8.0966165816132710e-02  8.0966365662695564e-02  8.0966598728973965e-02  8.0966819132778242e-02  8.0966954235520028e-02  8.0966894976540610e-02  8.0966483839280637e-02  8.0965500896382478e-02  8.0963649295026502e-02  8.0960542842755140e-02  8.0955699961332159e-02  8.0948550000434938e-02  8.0938459486400258e-02  8.0924787236900775e-02  8.0906979405469898e-02  8.0884722688641011e-02  8.0858194143684642e-02  8.0828459223896879e-02  8.0797948357644409e-02  8.0770428956693771e-02  8.0749470778308657e-02  8.0735842088227858e-02  8.0726679853843131e-02  8.0717746480772401e-02  8.0705074811921920e-02  8.0685976756775302e-02  8.0659709300848342e-02  8.0627868459472479e-02  8.0594270208491359e-02  8.0564000301383110e-02  8.0542680706172057e-02  8.0535575191371153e-02  8.0545986199875838e-02  8.0573681641742473e-02  8.0615143276519100e-02  8.0664958663267991e-02  8.0717396210120473e-02  8.0767635560220805e-02  8.0812387493808327e-02  8.0849937277707756e-02  8.0879837611857353e-02  8.0902490965724452e-02  8.0918774288590928e-02  8.0929764937447565e-02  8.0936567216835065e-02  8.0940215001847976e-02  8.0941623610610663e-02  8.0941570445231897e-02  8.0940691429574441e-02  8.0939486019040580e-02  8.0938327108394048e-02  8.0937474011433502e-02  8.0937087471796246e-02  8.0937245896713125e-02  8.0937962020846632e-02  8.0939199198986067e-02  8.0940886583462796e-02  8.0942932582490107e-02  8.0945236195496623e-02  8.0947696041029665e-02  8.0950217094116289e-02  8.0952715307246487e-02  8.0955120390990301e-02  8.0957377077688644e-02  8.0959445194074650e-02  8.0961298839785589e-02  8.0962924923748986e-02  8.0964321264504077e-02  8.0965494427866089e-02  8.0966457467553071e-02  8.0967227754962692e-02  8.0967825114534792e-02  8.0968270453820823e-02  8.0968584853412795e-02  8.0968788535794742e-02  8.0968898670810530e-02  1.5089679529408934e-01  1.5089711378171466e-01  8.0969102353023736e-02  8.0969080545424857e-02  8.0969041980445383e-02  8.0968983420119586e-02  8.0968902478934041e-02  8.0968797975553508e-02  8.0968669816891575e-02  8.0968518714809229e-02  8.0968345994244448e-02  8.0968153568442364e-02  8.0967944043384213e-02  8.0967720877746827e-02  8.0967488528624870e-02  8.0967252529609249e-02  8.0967019464187814e-02  8.0966796809856245e-02  8.0966592636266710e-02  8.0966415144244977e-02  8.0966272030828651e-02  8.0966169656571496e-02  8.0966111971967292e-02  8.0966099126097771e-02  8.0966125629396687e-02  8.0966177873822570e-02  8.0966230734603975e-02  8.0966242906733099e-02  8.0966150603111381e-02  8.0965859320017375e-02  8.0965233646053042e-02  8.0964085658917662e-02  8.0962163418056801e-02  8.0959142449100338e-02  8.0954624787088633e-02  8.0948151673462448e-02  8.0939236623703184e-02  8.0927424349470756e-02  8.0912377368578842e-02  8.0893987726841823e-02  8.0872516778603187e-02  8.0848816773927995e-02  8.0824776510050558e-02  8.0803967750313690e-02  8.0791435774700160e-02  8.0790928477849897e-02  8.0800901182927140e-02  8.0814180522143772e-02  8.0823077987116812e-02  8.0822284443845704e-02  8.0809323699511881e-02  8.0784925245875439e-02  8.0750830338282370e-02  8.0708675341626623e-02  8.0661927969106331e-02  8.0617429642478866e-02  8.0583765946512217e-02  8.0568530973298941e-02  8.0574334705048933e-02  8.0598853763152511e-02  8.0636784138356718e-02  8.0681886590363946e-02  8.0728581592429821e-02  8.0772776748725614e-02  8.0812007254397147e-02  8.0845171922921288e-02  8.0872128316383421e-02  8.0893310216357636e-02  8.0909436879303201e-02  8.0921323319533972e-02  8.0929772381772777e-02  8.0935522015666464e-02  8.0939224587538411e-02  8.0941442104252748e-02  8.0942648003910336e-02  8.0943231138928165e-02  8.0943500542652619e-02  8.0943690955157160e-02  8.0943969453285247e-02  8.0944443373979907e-02  8.0945169390411187e-02  8.0946163308948091e-02  8.0947409996372774e-02  8.0948872833509919e-02  8.0950502189876525e-02  8.0952242573518143e-02  8.0954038283657215e-02  8.0955837547231582e-02  8.0957595235870192e-02  8.0959274333364195e-02  8.0960846361254279e-02  8.0962290983876611e-02  8.0963595018738344e-02  8.0964751087236927e-02  8.0965756162456576e-02  8.0966610297709990e-02  8.0967315811780197e-02  8.0967877067620070e-02  8.0968300547720001e-02  8.0968594095746291e-02  8.0968763565525098e-02  1.5089659040537151e-01  1.5089707977797931e-01  8.0969079740973865e-02  8.0969041526857896e-02  8.0968980315478833e-02  8.0968894825918902e-02  8.0968784565214752e-02  8.0968650473465187e-02  8.0968494881191205e-02  8.0968321136106386e-02  8.0968133207183296e-02  8.0967935411532674e-02  8.0967732277809790e-02  8.0967528494848784e-02  8.0967328877986217e-02  8.0967138293428054e-02  8.0966961496859668e-02  8.0966802858315007e-02  8.0966665957825840e-02  8.0966553044020215e-02  8.0966464349042491e-02  8.0966397245481214e-02  8.0966345211116092e-02  8.0966296531702994e-02  8.0966232618506717e-02  8.0966125747646250e-02  8.0965935952275331e-02  8.0965606739569873e-02  8.0965059306674234e-02  8.0964185065594635e-02  8.0962836660543061e-02  8.0960818397671164e-02  8.0957878210591902e-02  8.0953704939442400e-02  8.0947936498553877e-02  8.0940185642988494e-02  8.0930089140277703e-02  8.0917381650231629e-02  8.0901987097075079e-02  8.0884111802632053e-02  8.0864334734796595e-02  8.0843802813649474e-02  8.0824907159833551e-02  8.0812595731792891e-02  8.0814029070495452e-02  8.0833282610366028e-02  8.0865479479744651e-02  8.0897909566575762e-02  8.0919136589685525e-02  1.1703699855792594e-01  1.5064502313161360e-01  1.5056454868927915e-01  1.5044652660084429e-01  1.1680320044681589e-01  8.0763157401663052e-02  8.0688901977208433e-02  8.0617505032740761e-02  8.0568437210875213e-02  8.0549890399957275e-02  8.0559547261279965e-02  8.0589818763534368e-02  8.0631889660677164e-02  8.0678373488415070e-02  8.0724204963827095e-02  8.0766438232356630e-02  8.0803678147364916e-02  8.0835519744115791e-02  8.0862118665789795e-02  8.0883904891747849e-02  8.0901414091439486e-02  8.0915201538350648e-02  8.0925805907068035e-02  8.0933737815946011e-02  8.0939476956784967e-02  8.0943469630193207e-02  8.0946124163572261e-02  8.0947804815869565e-02  8.0948825913305628e-02  8.0949447873081767e-02  8.0949876115412725e-02  8.0950263097889164e-02  8.0950713086622522e-02  8.0951288903012716e-02  8.0952019748799467e-02  8.0952909259529873e-02  8.0953943096515768e-02  8.0955095594900522e-02  8.0956335192285775e-02  8.0957628539376492e-02  8.0958943329462324e-02  8.0960249978407728e-02  8.0961522350563836e-02  8.0962737771341109e-02  8.0963876604759094e-02  8.0964921705545145e-02  8.0965858061531892e-02  8.0966672868846984e-02  8.0967356023871243e-02  8.0967900418934938e-02  8.0968300407674887e-02  8.0968546020437016e-02  1.5089624710512978e-01  1.5089702124084842e-01  8.0969042303391858e-02  8.0968982086835825e-02  8.0968893473199133e-02  8.0968778378940079e-02  8.0968638494455181e-02  8.0968476795642341e-02  8.0968297707717504e-02  8.0968106734251727e-02  8.0967909955361822e-02  8.0967713579798400e-02  8.0967523602819488e-02  8.0967345545420413e-02  8.0967184219600655e-02  8.0967043462437716e-02  8.0966925794053471e-02  8.0966831971572908e-02  8.0966760427701789e-02  8.0966706595688637e-02  8.0966662129820663e-02  8.0966614029419209e-02  8.0966543661072352e-02  8.0966425644891329e-02  8.0966226523387808e-02  8.0965903067322487e-02  8.0965400000435922e-02  8.0964646867064019e-02  8.0963553768396007e-02  8.0962005831870590e-02  8.0959856669681252e-02  8.0956921870332710e-02  8.0952974869892197e-02  8.0947749322154539e-02  8.0940953862018244e-02  8.0932305693542927e-02  8.0921586517910885e-02  8.0908715333593478e-02  8.0893817121122924e-02  8.0877252924689197e-02  8.0859604085607911e-02  8.0841830452767147e-02  8.0826411404387483e-02  8.0820044096996183e-02  8.0833067361757743e-02  8.0869240260843842e-02  8.0917891291066441e-02  1.1710989667615371e-01  1.5089519927295736e-01  2.0905717098491117e-01  4.9952186767464141e-01  4.9914397881996164e-01  4.9860087738783054e-01  4.9781318655388618e-01  2.0809072553783214e-01  1.1663849150395475e-01  8.0642142919971765e-02  8.0542899319239553e-02  8.0492896405942232e-02  8.0489938153783025e-02  8.0519367056775634e-02  8.0565546094720997e-02  8.0617290428149524e-02  8.0668267466198471e-02  8.0715486582511792e-02  8.0757820946401340e-02  8.0795048914969497e-02  8.0827331592086341e-02  8.0854961344911130e-02  8.0878260780114120e-02  8.0897557983472299e-02  8.0913193390241514e-02  8.0925532308276538e-02  8.0934970184451199e-02  8.0941927019826693e-02  8.0946833020308459e-02  8.0950109928598440e-02  8.0952152508213734e-02  8.0953313455253265e-02  8.0953893460127532e-02  8.0954136768067925e-02  8.0954231627633488e-02  8.0954314494584109e-02  8.0954476692545158e-02  8.0954772308221984e-02  8.0955226311744732e-02  8.0955842159833979e-02  8.0956608404993552e-02  8.0957504065646335e-02  8.0958502696788129e-02  8.0959575238509385e-02  8.0960691818801139e-02  8.0961822757938284e-02  8.0962939071062653e-02  8.0964012788347278e-02  8.0965017381730592e-02  8.0965928445095536e-02  8.0966724424894373e-02  8.0967386516558049e-02  8.0967895737160456e-02  8.0968224204973599e-02  1.5089571748055577e-01  1.5089692656094894e-01  8.0968984704744909e-02  8.0968898134581385e-02  8.0968779247540479e-02  8.0968634040741672e-02  8.0968466229678959e-02  8.0968280412657578e-02  8.0968082582343365e-02  8.0967879792583186e-02  8.0967679601616216e-02  8.0967489506245272e-02  8.0967316436285575e-02  8.0967166304210358e-02  8.0967043568929600e-02  8.0966950764012585e-02  8.0966887949091057e-02  8.0966852060204680e-02  8.0966836154823169e-02  8.0966828566592125e-02  8.0966812000630495e-02  8.0966762609353635e-02  8.0966649087553522e-02  8.0966431809573775e-02  8.0966061997115438e-02  8.0965480852380783e-02  8.0964618523230905e-02  8.0963392703091941e-02  8.0961706649752885e-02  8.0959446510971811e-02  8.0956478194118317e-02  8.0952644773555682e-02  8.0947766733057952e-02  8.0941649136689803e-02  8.0934101500654762e-02  8.0924975964116297e-02  8.0914223905070456e-02  8.0901955615681406e-02  8.0888459274519708e-02  8.0874105587172618e-02  8.0859102574769165e-02  8.0843520101158764e-02  8.0829386220474322e-02  8.0825898099896709e-02  8.0846822117025124e-02  8.0893776811055917e-02  1.1707482313314048e-01  2.0914764717572140e-01  5.0006841001840674e-01  5.0009243941263115e-01  4.9996116051434580e-01  4.9978641900708948e-01  4.9929136296921867e-01  4.9890013035693603e-01  4.9758567654298197e-01  4.9534148630546349e-01  1.4954448428336042e-01  8.0499173039330019e-02  8.0398070750695425e-02  8.0380157543447586e-02  8.0418256197698532e-02  8.0479444097828590e-02  8.0544503548365814e-02  8.0605509481237153e-02  8.0660313033886280e-02  8.0708975178317655e-02  8.0752105094842569e-02  8.0790254299256237e-02  8.0823780136560955e-02  8.0852886038709049e-02  8.0877709555686267e-02  8.0898403800510388e-02  8.0915191012912877e-02  8.0928383569910764e-02  8.0938377363024047e-02  8.0945627127874620e-02  8.0950613895016343e-02  8.0953812780162226e-02  8.0955666392644482e-02  8.0956566281560879e-02  8.0956842662211898e-02  8.0956761329802604e-02  8.0956526054085973e-02  8.0956284638400683e-02  8.0956137009975782e-02  8.0956144028634811e-02  8.0956336056738895e-02  8.0956720666125609e-02  8.0957289139673400e-02  8.0958021647356354e-02  8.0958891142561135e-02  8.0959866143194711e-02  8.0960912643049915e-02  8.0961995445507084e-02  8.0963079214743577e-02  8.0964129470361260e-02  8.0965113557630308e-02  8.0966001237105512e-02  8.0966763874934400e-02  8.0967370164520547e-02  8.0967775185054797e-02  1.5089494618505242e-01  1.5089678145887012e-01  8.0968900733642352e-02  8.0968785837471746e-02  8.0968636554327775e-02  8.0968463321018397e-02  8.0968271400675584e-02  8.0968066446279963e-02  8.0967855446085632e-02  8.0967646413630204e-02  8.0967447786743599e-02  8.0967267779137930e-02  8.0967113750444464e-02  8.0966991595165322e-02  8.0966905119337240e-02  8.0966855363710594e-02  8.0966839838548910e-02  8.0966851652247374e-02  8.0966878539218134e-02  8.0966901818448359e-02  8.0966895339894290e-02  8.0966824498238235e-02  8.0966645408484861e-02  8.0966304340354359e-02  8.0965737492933815e-02  8.0964871153264145e-02  8.0963622222925108e-02  8.0961899027322787e-02  8.0959602278512399e-02  8.0956626118297098e-02  8.0952859452080028e-02  8.0948188473167162e-02  8.0942502535111926e-02  8.0935707301411849e-02  8.0927750652983022e-02  8.0918665911773130e-02  8.0908628619348222e-02  8.0897999016267513e-02  8.0887272899996199e-02  8.0876791022253508e-02  8.0866037777661492e-02  8.0853029494538417e-02  8.0837918117965035e-02  8.0834734952210288e-02  8.0861529179467928e-02  1.1695461753780953e-01  2.0895441637115397e-01  4.9983827214726700e-01  5.0014609808655330e-01  4.9997073261853270e-01  4.9997073261874203e-01  4.9997073262011088e-01  4.9997073262098735e-01  4.9997073261799002e-01  4.9997073261598696e-01  4.9722154215764963e-01  4.9312686009894213e-01  1.4857126651167590e-01  8.0276240701648627e-02  8.0221204667381751e-02  8.0276968002460786e-02  8.0369215761473392e-02  8.0458964992252247e-02  8.0536238051946915e-02  8.0601597384399065e-02  8.0657844318700905e-02  8.0707337261675158e-02  8.0751486697190539e-02  8.0790929210901197e-02  8.0825835307709828e-02  8.0856180219140289e-02  8.0881935760986942e-02  8.0903181752559533e-02  8.0920149172894959e-02  8.0933213516334770e-02  8.0942858549510166e-02  8.0949628178246108e-02  8.0954079297343856e-02  8.0956743216141783e-02  8.0958098705313994e-02  8.0958556550241201e-02  8.0958453761172028e-02  8.0958054948814639e-02  8.0957558408817368e-02  8.0957104827937804e-02  8.0956787006391598e-02  8.0956659463950600e-02  8.0956747206928706e-02  8.0957053261746473e-02  8.0957564830068385e-02  8.0958258100980868e-02  8.0959101880006462e-02  8.0960060272776815e-02  8.0961094695141081e-02  8.0962165461255689e-02  8.0963233101673818e-02  8.0964259348927328e-02  8.0965207368810771e-02  8.0966040296070962e-02  8.0966716323158758e-02  8.0967177497671641e-02  1.5089387750579544e-01  1.5089656995306064e-01  8.0968783562945290e-02  8.0968641562968111e-02  8.0968465168262893e-02  8.0968268951523037e-02  8.0968059000818687e-02  8.0967841413183764e-02  8.0967623654349632e-02  8.0967414203652152e-02  8.0967221887372695e-02  8.0967055164362825e-02  8.0966921404282244e-02  8.0966826148088838e-02  8.0966772321247771e-02  8.0966759364536151e-02  8.0966782254349917e-02  8.0966830402553480e-02  8.0966886452725512e-02  8.0966925022740582e-02  8.0966911480613579e-02  8.0966800878487830e-02  8.09665372044