<?xml version="1.0"?>
<VTKFile type="UnstructuredGrid"  version="0.1"  >
<UnstructuredGrid>
<Piece  NumberOfPoints="5151" NumberOfCells="10000">
<Points>
<DataArray  type="Float64"  NumberOfComponents="3"  format="ascii">0 0 0  0.02 0 0  0.04 0 0  0.06 0 0  0.08 0 0  0.1 0 0  0.12 0 0  0.14 0 0  0.16 0 0  0.18 0 0  0.2 0 0  0.22 0 0  0.24 0 0  0.26 0 0  0.28 0 0  0.3 0 0  0.32 0 0  0.34 0 0  0.36 0 0  0.38 0 0  0.4 0 0  0.42 0 0  0.44 0 0  0.46 0 0  0.48 0 0  0.5 0 0  0.52 0 0  0.54 0 0  0.5600000000000001 0 0  0.58 0 0  0.6 0 0  0.62 0 0  0.64 0 0  0.66 0 0  0.68 0 0  0.7 0 0  0.72 0 0  0.74 0 0  0.76 0 0  0.78 0 0  0.8 0 0  0.82 0 0  0.84 0 0  0.86 0 0  0.88 0 0  0.9 0 0  0.92 0 0  0.9399999999999999 0 0  0.96 0 0  0.98 0 0  1 0 0  1.02 0 0  1.04 0 0  1.06 0 0  1.08 0 0  1.1 0 0  1.12 0 0  1.14 0 0  1.16 0 0  1.18 0 0  1.2 0 0  1.22 0 0  1.24 0 0  1.26 0 0  1.28 0 0  1.3 0 0  1.32 0 0  1.34 0 0  1.36 0 0  1.38 0 0  1.4 0 0  1.42 0 0  1.44 0 0  1.46 0 0  1.48 0 0  1.5 0 0  1.52 0 0  1.54 0 0  1.56 0 0  1.58 0 0  1.6 0 0  1.62 0 0  1.64 0 0  1.66 0 0  1.68 0 0  1.7 0 0  1.72 0 0  1.74 0 0  1.76 0 0  1.78 0 0  1.8 0 0  1.82 0 0  1.84 0 0  1.86 0 0  1.88 0 0  1.9 0 0  1.92 0 0  1.94 0 0  1.96 0 0  1.98 0 0  2 0 0  0 0.02 0  0.02 0.02 0  0.04 0.02 0  0.06 0.02 0  0.08 0.02 0  0.1 0.02 0  0.12 0.02 0  0.14 0.02 0  0.16 0.02 0  0.18 0.02 0  0.2 0.02 0  0.22 0.02 0  0.24 0.02 0  0.26 0.02 0  0.28 0.02 0  0.3 0.02 0  0.32 0.02 0  0.34 0.02 0  0.36 0.02 0  0.38 0.02 0  0.4 0.02 0  0.42 0.02 0  0.44 0.02 0  0.46 0.02 0  0.48 0.02 0  0.5 0.02 0  0.52 0.02 0  0.54 0.02 0  0.5600000000000001 0.02 0  0.58 0.02 0  0.6 0.02 0  0.62 0.02 0  0.64 0.02 0  0.66 0.02 0  0.68 0.02 0  0.7 0.02 0  0.72 0.02 0  0.74 0.02 0  0.76 0.02 0  0.78 0.02 0  0.8 0.02 0  0.82 0.02 0  0.84 0.02 0  0.86 0.02 0  0.88 0.02 0  0.9 0.02 0  0.92 0.02 0  0.9399999999999999 0.02 0  0.96 0.02 0  0.98 0.02 0  1 0.02 0  1.02 0.02 0  1.04 0.02 0  1.06 0.02 0  1.08 0.02 0  1.1 0.02 0  1.12 0.02 0  1.14 0.02 0  1.16 0.02 0  1.18 0.02 0  1.2 0.02 0  1.22 0.02 0  1.24 0.02 0  1.26 0.02 0  1.28 0.02 0  1.3 0.02 0  1.32 0.02 0  1.34 0.02 0  1.36 0.02 0  1.38 0.02 0  1.4 0.02 0  1.42 0.02 0  1.44 0.02 0  1.46 0.02 0  1.48 0.02 0  1.5 0.02 0  1.52 0.02 0  1.54 0.02 0  1.56 0.02 0  1.58 0.02 0  1.6 0.02 0  1.62 0.02 0  1.64 0.02 0  1.66 0.02 0  1.68 0.02 0  1.7 0.02 0  1.72 0.02 0  1.74 0.02 0  1.76 0.02 0  1.78 0.02 0  1.8 0.02 0  1.82 0.02 0  1.84 0.02 0  1.86 0.02 0  1.88 0.02 0  1.9 0.02 0  1.92 0.02 0  1.94 0.02 0  1.96 0.02 0  1.98 0.02 0  2 0.02 0  0 0.04 0  0.02 0.04 0  0.04 0.04 0  0.06 0.04 0  0.08 0.04 0  0.1 0.04 0  0.12 0.04 0  0.14 0.04 0  0.16 0.04 0  0.18 0.04 0  0.2 0.04 0  0.22 0.04 0  0.24 0.04 0  0.26 0.04 0  0.28 0.04 0  0.3 0.04 0  0.32 0.04 0  0.34 0.04 0  0.36 0.04 0  0.38 0.04 0  0.4 0.04 0  0.42 0.04 0  0.44 0.04 0  0.46 0.04 0  0.48 0.04 0  0.5 0.04 0  0.52 0.04 0  0.54 0.04 0  0.5600000000000001 0.04 0  0.58 0.04 0  0.6 0.04 0  0.62 0.04 0  0.64 0.04 0  0.66 0.04 0  0.68 0.04 0  0.7 0.04 0  0.72 0.04 0  0.74 0.04 0  0.76 0.04 0  0.78 0.04 0  0.8 0.04 0  0.82 0.04 0  0.84 0.04 0  0.86 0.04 0  0.88 0.04 0  0.9 0.04 0  0.92 0.04 0  0.9399999999999999 0.04 0  0.96 0.04 0  0.98 0.04 0  1 0.04 0  1.02 0.04 0  1.04 0.04 0  1.06 0.04 0  1.08 0.04 0  1.1 0.04 0  1.12 0.04 0  1.14 0.04 0  1.16 0.04 0  1.18 0.04 0  1.2 0.04 0  1.22 0.04 0  1.24 0.04 0  1.26 0.04 0  1.28 0.04 0  1.3 0.04 0  1.32 0.04 0  1.34 0.04 0  1.36 0.04 0  1.38 0.04 0  1.4 0.04 0  1.42 0.04 0  1.44 0.04 0  1.46 0.04 0  1.48 0.04 0  1.5 0.04 0  1.52 0.04 0  1.54 0.04 0  1.56 0.04 0  1.58 0.04 0  1.6 0.04 0  1.62 0.04 0  1.64 0.04 0  1.66 0.04 0  1.68 0.04 0  1.7 0.04 0  1.72 0.04 0  1.74 0.04 0  1.76 0.04 0  1.78 0.04 0  1.8 0.04 0  1.82 0.04 0  1.84 0.04 0  1.86 0.04 0  1.88 0.04 0  1.9 0.04 0  1.92 0.04 0  1.94 0.04 0  1.96 0.04 0  1.98 0.04 0  2 0.04 0  0 0.06 0  0.02 0.06 0  0.04 0.06 0  0.06 0.06 0  0.08 0.06 0  0.1 0.06 0  0.12 0.06 0  0.14 0.06 0  0.16 0.06 0  0.18 0.06 0  0.2 0.06 0  0.22 0.06 0  0.24 0.06 0  0.26 0.06 0  0.28 0.06 0  0.3 0.06 0  0.32 0.06 0  0.34 0.06 0  0.36 0.06 0  0.38 0.06 0  0.4 0.06 0  0.42 0.06 0  0.44 0.06 0  0.46 0.06 0  0.48 0.06 0  0.5 0.06 0  0.52 0.06 0  0.54 0.06 0  0.5600000000000001 0.06 0  0.58 0.06 0  0.6 0.06 0  0.62 0.06 0  0.64 0.06 0  0.66 0.06 0  0.68 0.06 0  0.7 0.06 0  0.72 0.06 0  0.74 0.06 0  0.76 0.06 0  0.78 0.06 0  0.8 0.06 0  0.82 0.06 0  0.84 0.06 0  0.86 0.06 0  0.88 0.06 0  0.9 0.06 0  0.92 0.06 0  0.9399999999999999 0.06 0  0.96 0.06 0  0.98 0.06 0  1 0.06 0  1.02 0.06 0  1.04 0.06 0  1.06 0.06 0  1.08 0.06 0  1.1 0.06 0  1.12 0.06 0  1.14 0.06 0  1.16 0.06 0  1.18 0.06 0  1.2 0.06 0  1.22 0.06 0  1.24 0.06 0  1.26 0.06 0  1.28 0.06 0  1.3 0.06 0  1.32 0.06 0  1.34 0.06 0  1.36 0.06 0  1.38 0.06 0  1.4 0.06 0  1.42 0.06 0  1.44 0.06 0  1.46 0.06 0  1.48 0.06 0  1.5 0.06 0  1.52 0.06 0  1.54 0.06 0  1.56 0.06 0  1.58 0.06 0  1.6 0.06 0  1.62 0.06 0  1.64 0.06 0  1.66 0.06 0  1.68 0.06 0  1.7 0.06 0  1.72 0.06 0  1.74 0.06 0  1.76 0.06 0  1.78 0.06 0  1.8 0.06 0  1.82 0.06 0  1.84 0.06 0  1.86 0.06 0  1.88 0.06 0  1.9 0.06 0  1.92 0.06 0  1.94 0.06 0  1.96 0.06 0  1.98 0.06 0  2 0.06 0  0 0.08 0  0.02 0.08 0  0.04 0.08 0  0.06 0.08 0  0.08 0.08 0  0.1 0.08 0  0.12 0.08 0  0.14 0.08 0  0.16 0.08 0  0.18 0.08 0  0.2 0.08 0  0.22 0.08 0  0.24 0.08 0  0.26 0.08 0  0.28 0.08 0  0.3 0.08 0  0.32 0.08 0  0.34 0.08 0  0.36 0.08 0  0.38 0.08 0  0.4 0.08 0  0.42 0.08 0  0.44 0.08 0  0.46 0.08 0  0.48 0.08 0  0.5 0.08 0  0.52 0.08 0  0.54 0.08 0  0.5600000000000001 0.08 0  0.58 0.08 0  0.6 0.08 0  0.62 0.08 0  0.64 0.08 0  0.66 0.08 0  0.68 0.08 0  0.7 0.08 0  0.72 0.08 0  0.74 0.08 0  0.76 0.08 0  0.78 0.08 0  0.8 0.08 0  0.82 0.08 0  0.84 0.08 0  0.86 0.08 0  0.88 0.08 0  0.9 0.08 0  0.92 0.08 0  0.9399999999999999 0.08 0  0.96 0.08 0  0.98 0.08 0  1 0.08 0  1.02 0.08 0  1.04 0.08 0  1.06 0.08 0  1.08 0.08 0  1.1 0.08 0  1.12 0.08 0  1.14 0.08 0  1.16 0.08 0  1.18 0.08 0  1.2 0.08 0  1.22 0.08 0  1.24 0.08 0  1.26 0.08 0  1.28 0.08 0  1.3 0.08 0  1.32 0.08 0  1.34 0.08 0  1.36 0.08 0  1.38 0.08 0  1.4 0.08 0  1.42 0.08 0  1.44 0.08 0  1.46 0.08 0  1.48 0.08 0  1.5 0.08 0  1.52 0.08 0  1.54 0.08 0  1.56 0.08 0  1.58 0.08 0  1.6 0.08 0  1.62 0.08 0  1.64 0.08 0  1.66 0.08 0  1.68 0.08 0  1.7 0.08 0  1.72 0.08 0  1.74 0.08 0  1.76 0.08 0  1.78 0.08 0  1.8 0.08 0  1.82 0.08 0  1.84 0.08 0  1.86 0.08 0  1.88 0.08 0  1.9 0.08 0  1.92 0.08 0  1.94 0.08 0  1.96 0.08 0  1.98 0.08 0  2 0.08 0  0 0.1 0  0.02 0.1 0  0.04 0.1 0  0.06 0.1 0  0.08 0.1 0  0.1 0.1 0  0.12 0.1 0  0.14 0.1 0  0.16 0.1 0  0.18 0.1 0  0.2 0.1 0  0.22 0.1 0  0.24 0.1 0  0.26 0.1 0  0.28 0.1 0  0.3 0.1 0  0.32 0.1 0  0.34 0.1 0  0.36 0.1 0  0.38 0.1 0  0.4 0.1 0  0.42 0.1 0  0.44 0.1 0  0.46 0.1 0  0.48 0.1 0  0.5 0.1 0  0.52 0.1 0  0.54 0.1 0  0.5600000000000001 0.1 0  0.58 0.1 0  0.6 0.1 0  0.62 0.1 0  0.64 0.1 0  0.66 0.1 0  0.68 0.1 0  0.7 0.1 0  0.72 0.1 0  0.74 0.1 0  0.76 0.1 0  0.78 0.1 0  0.8 0.1 0  0.82 0.1 0  0.84 0.1 0  0.86 0.1 0  0.88 0.1 0  0.9 0.1 0  0.92 0.1 0  0.9399999999999999 0.1 0  0.96 0.1 0  0.98 0.1 0  1 0.1 0  1.02 0.1 0  1.04 0.1 0  1.06 0.1 0  1.08 0.1 0  1.1 0.1 0  1.12 0.1 0  1.14 0.1 0  1.16 0.1 0  1.18 0.1 0  1.2 0.1 0  1.22 0.1 0  1.24 0.1 0  1.26 0.1 0  1.28 0.1 0  1.3 0.1 0  1.32 0.1 0  1.34 0.1 0  1.36 0.1 0  1.38 0.1 0  1.4 0.1 0  1.42 0.1 0  1.44 0.1 0  1.46 0.1 0  1.48 0.1 0  1.5 0.1 0  1.52 0.1 0  1.54 0.1 0  1.56 0.1 0  1.58 0.1 0  1.6 0.1 0  1.62 0.1 0  1.64 0.1 0  1.66 0.1 0  1.68 0.1 0  1.7 0.1 0  1.72 0.1 0  1.74 0.1 0  1.76 0.1 0  1.78 0.1 0  1.8 0.1 0  1.82 0.1 0  1.84 0.1 0  1.86 0.1 0  1.88 0.1 0  1.9 0.1 0  1.92 0.1 0  1.94 0.1 0  1.96 0.1 0  1.98 0.1 0  2 0.1 0  0 0.12 0  0.02 0.12 0  0.04 0.12 0  0.06 0.12 0  0.08 0.12 0  0.1 0.12 0  0.12 0.12 0  0.14 0.12 0  0.16 0.12 0  0.18 0.12 0  0.2 0.12 0  0.22 0.12 0  0.24 0.12 0  0.26 0.12 0  0.28 0.12 0  0.3 0.12 0  0.32 0.12 0  0.34 0.12 0  0.36 0.12 0  0.38 0.12 0  0.4 0.12 0  0.42 0.12 0  0.44 0.12 0  0.46 0.12 0  0.48 0.12 0  0.5 0.12 0  0.52 0.12 0  0.54 0.12 0  0.5600000000000001 0.12 0  0.58 0.12 0  0.6 0.12 0  0.62 0.12 0  0.64 0.12 0  0.66 0.12 0  0.68 0.12 0  0.7 0.12 0  0.72 0.12 0  0.74 0.12 0  0.76 0.12 0  0.78 0.12 0  0.8 0.12 0  0.82 0.12 0  0.84 0.12 0  0.86 0.12 0  0.88 0.12 0  0.9 0.12 0  0.92 0.12 0  0.9399999999999999 0.12 0  0.96 0.12 0  0.98 0.12 0  1 0.12 0  1.02 0.12 0  1.04 0.12 0  1.06 0.12 0  1.08 0.12 0  1.1 0.12 0  1.12 0.12 0  1.14 0.12 0  1.16 0.12 0  1.18 0.12 0  1.2 0.12 0  1.22 0.12 0  1.24 0.12 0  1.26 0.12 0  1.28 0.12 0  1.3 0.12 0  1.32 0.12 0  1.34 0.12 0  1.36 0.12 0  1.38 0.12 0  1.4 0.12 0  1.42 0.12 0  1.44 0.12 0  1.46 0.12 0  1.48 0.12 0  1.5 0.12 0  1.52 0.12 0  1.54 0.12 0  1.56 0.12 0  1.58 0.12 0  1.6 0.12 0  1.62 0.12 0  1.64 0.12 0  1.66 0.12 0  1.68 0.12 0  1.7 0.12 0  1.72 0.12 0  1.74 0.12 0  1.76 0.12 0  1.78 0.12 0  1.8 0.12 0  1.82 0.12 0  1.84 0.12 0  1.86 0.12 0  1.88 0.12 0  1.9 0.12 0  1.92 0.12 0  1.94 0.12 0  1.96 0.12 0  1.98 0.12 0  2 0.12 0  0 0.14 0  0.02 0.14 0  0.04 0.14 0  0.06 0.14 0  0.08 0.14 0  0.1 0.14 0  0.12 0.14 0  0.14 0.14 0  0.16 0.14 0  0.18 0.14 0  0.2 0.14 0  0.22 0.14 0  0.24 0.14 0  0.26 0.14 0  0.28 0.14 0  0.3 0.14 0  0.32 0.14 0  0.34 0.14 0  0.36 0.14 0  0.38 0.14 0  0.4 0.14 0  0.42 0.14 0  0.44 0.14 0  0.46 0.14 0  0.48 0.14 0  0.5 0.14 0  0.52 0.14 0  0.54 0.14 0  0.5600000000000001 0.14 0  0.58 0.14 0  0.6 0.14 0  0.62 0.14 0  0.64 0.14 0  0.66 0.14 0  0.68 0.14 0  0.7 0.14 0  0.72 0.14 0  0.74 0.14 0  0.76 0.14 0  0.78 0.14 0  0.8 0.14 0  0.82 0.14 0  0.84 0.14 0  0.86 0.14 0  0.88 0.14 0  0.9 0.14 0  0.92 0.14 0  0.9399999999999999 0.14 0  0.96 0.14 0  0.98 0.14 0  1 0.14 0  1.02 0.14 0  1.04 0.14 0  1.06 0.14 0  1.08 0.14 0  1.1 0.14 0  1.12 0.14 0  1.14 0.14 0  1.16 0.14 0  1.18 0.14 0  1.2 0.14 0  1.22 0.14 0  1.24 0.14 0  1.26 0.14 0  1.28 0.14 0  1.3 0.14 0  1.32 0.14 0  1.34 0.14 0  1.36 0.14 0  1.38 0.14 0  1.4 0.14 0  1.42 0.14 0  1.44 0.14 0  1.46 0.14 0  1.48 0.14 0  1
[...]
<PointData  Scalars="sols[i]"> 
<DataArray  type="Float64"  Name="sols[i]"  format="ascii">3.3914921232752945e-05  2.2608263552343531e-05  2.2608263552343609e-05  2.2608263552343775e-05  2.2608263552344148e-05  2.2608263552344974e-05  2.2608263552346729e-05  2.2608263552350595e-05  2.2608263552358978e-05  2.2608263552377067e-05  2.2608263552416190e-05  2.2608263552500500e-05  2.2608263552681853e-05  2.2608263553071258e-05  2.2608263553905694e-05  2.2608263555689867e-05  2.2608263559497222e-05  2.2608263567604822e-05  2.2608263584831385e-05  2.2608263621347494e-05  2.2608263698550894e-05  2.2608263861286479e-05  2.2608264203084057e-05  2.2608264917792257e-05  2.2608266403892897e-05  2.2608269471677605e-05  2.2608275745254370e-05  2.2608288417992608e-05  2.2608313609530612e-05  2.2608362648145713e-05  2.2608455535458101e-05  2.2608625329144844e-05  2.2608921658777920e-05  2.2609408593136654e-05  2.2610148391036240e-05  2.2611160242917020e-05  2.2612356702656470e-05  2.2613518763244752e-05  2.2614368255692457e-05  2.2614689643263826e-05  2.2614430780661689e-05  2.2613708154385590e-05  2.2612723588424960e-05  2.2611683386761098e-05  2.2610740900822988e-05  2.2609975599048003e-05  2.2609403571317593e-05  2.2609002178896877e-05  2.2608733486954599e-05  2.2608559526667191e-05  2.2608449289486157e-05  2.2608380233070169e-05  2.2608337150078625e-05  2.2608310276740337e-05  2.2608293553860559e-05  2.2608283339629206e-05  2.2608277586684952e-05  2.2608275413576020e-05  2.2608277022231883e-05  2.2608283984088965e-05  2.2608300020801044e-05  2.2608332544375843e-05  2.2608395405537344e-05  2.2608513528903569e-05  2.2608730363892487e-05  2.2609119279544710e-05  2.2609800038831312e-05  2.2610961034759048e-05  2.2612886389523015e-05  2.2615982239176642e-05  2.2620782583849764e-05  2.2627879553337923e-05  2.2637658123998885e-05  2.2649684379213849e-05  2.2661853845411816e-05  2.2670329110841218e-05  2.2671631513100138e-05  2.2665320487535332e-05  2.2654065593529699e-05  2.2641591245572547e-05  2.2630647359222257e-05  2.2622370157001897e-05  2.2616719255027070e-05  2.2613135347365702e-05  2.2610983087078830e-05  2.2609743140605049e-05  2.2609051587083753e-05  2.2608675793980700e-05  2.2608475910975150e-05  2.2608371490729262e-05  2.2608317775311667e-05  2.2608290510492274e-05  2.2608276832737104e-05  2.2608270041693797e-05  2.2608266700718009e-05  2.2608265070607375e-05  2.2608264281603391e-05  2.2608263903638794e-05  2.2608263727011323e-05  2.2608263652683037e-05  6.7813592199084620e-05  2.2608263552343521e-05  1.1299638476435814e-05  1.1299638476435850e-05  1.1299638476435933e-05  1.1299638476436111e-05  1.1299638476436510e-05  1.1299638476437363e-05  1.1299638476439238e-05  1.1299638476443314e-05  1.1299638476452133e-05  1.1299638476471230e-05  1.1299638476512504e-05  1.1299638476601448e-05  1.1299638476792822e-05  1.1299638477203766e-05  1.1299638478084333e-05  1.1299638479967457e-05  1.1299638483986591e-05  1.1299638492547113e-05  1.1299638510742839e-05  1.1299638549334487e-05  1.1299638630989996e-05  1.1299638803296520e-05  1.1299639165716337e-05  1.1299639924934848e-05  1.1299641507111175e-05  1.1299644781627502e-05  1.1299651496310355e-05  1.1299665094737976e-05  1.1299692173319390e-05  1.1299744877335282e-05  1.1299844332824876e-05  1.1300024317332060e-05  1.1300332173160736e-05  1.1300820793003445e-05  1.1301520148894318e-05  1.1302380252891641e-05  1.1303239319984074e-05  1.1303881018128628e-05  1.1304132587051993e-05  1.1303951383593063e-05  1.1303430030149529e-05  1.1302721784374420e-05  1.1301980397282738e-05  1.1301317090939153e-05  1.1300786200142500e-05  1.1300395240173969e-05  1.1300124760080422e-05  1.1299945953317845e-05  1.1299831360768530e-05  1.1299759281935773e-05  1.1299714335011894e-05  1.1299686346264241e-05  1.1299668878389770e-05  1.1299657971900312e-05  1.1299651249370856e-05  1.1299647353596299e-05  1.1299645650537371e-05  1.1299646151097935e-05  1.1299649655949629e-05  1.1299658195491313e-05  1.1299675927696079e-05  1.1299710779904141e-05  1.1299777281922658e-05  1.1299901226295473e-05  1.1300126967608030e-05  1.1300528262978585e-05  1.1301223464248876e-05  1.1302395432414972e-05  1.1304315001495800e-05  1.1307360623961190e-05  1.1312004156406662e-05  1.1318671395494812e-05  1.1327300671435197e-05  1.1336518212498481e-05  1.1343264773784094e-05  1.1344525814534968e-05  1.1339879814133029e-05  1.1331521083988688e-05  1.1322426274483262e-05  1.1314652810712407e-05  1.1308929731462278e-05  1.1305117787957452e-05  1.1302751203334036e-05  1.1301355230446738e-05  1.1300562895572207e-05  1.1300126454086675e-05  1.1299891768641776e-05  1.1299768059291043e-05  1.1299703937351717e-05  1.1299671179457456e-05  1.1299654654512737e-05  1.1299646410352865e-05  1.1299642337481044e-05  1.1299640342743844e-05  1.1299639373380401e-05  1.1299638905795323e-05  1.1299638682292808e-05  1.1299638577579798e-05  1.1299638532190448e-05  2.2608263638262670e-05  2.2608263552343531e-05  1.1299638476435821e-05  1.1299638476435867e-05  1.1299638476435962e-05  1.1299638476436170e-05  1.1299638476436651e-05  1.1299638476437679e-05  1.1299638476439941e-05  1.1299638476444884e-05  1.1299638476455631e-05  1.1299638476479004e-05  1.1299638476529731e-05  1.1299638476639542e-05  1.1299638476876854e-05  1.1299638477388647e-05  1.1299638478490049e-05  1.1299638480855693e-05  1.1299638485927077e-05  1.1299638496779016e-05  1.1299638519961163e-05  1.1299638569406596e-05  1.1299638674720145e-05  1.1299638898734326e-05  1.1299639374629153e-05  1.1299640384191235e-05  1.1299642521995095e-05  1.1299647036999905e-05  1.1299656533668037e-05  1.1299676379647896e-05  1.1299717433398939e-05  1.1299801029477986e-05  1.1299967210497616e-05  1.1300285842356244e-05  1.1300865165868209e-05  1.1301845687272652e-05  1.1303342065261424e-05  1.1305264772193392e-05  1.1307203442215962e-05  1.1308611247997615e-05  1.1309066651061873e-05  1.1308512758253559e-05  1.1307241042432557e-05  1.1305632943768999e-05  1.1304038537423033e-05  1.1302683455562996e-05  1.1301651944538660e-05  1.1300927697795125e-05  1.1300447818533839e-05  1.1300141985937695e-05  1.1299951460649020e-05  1.1299833894831904e-05  1.1299761328687825e-05  1.1299716260689582e-05  1.1299688052950305e-05  1.1299670324682461e-05  1.1299659282547298e-05  1.1299652746316669e-05  1.1299649656383425e-05  1.1299649946150707e-05  1.1299654776190112e-05  1.1299667258996525e-05  1.1299693977163544e-05  1.1299747845232784e-05  1.1299853209726742e-05  1.1300054513441763e-05  1.1300430294506142e-05  1.1301114610287988e-05  1.1302328118883280e-05  1.1304421450643284e-05  1.1307935104691983e-05  1.1313680006896939e-05  1.1322811765160458e-05  1.1336702500185342e-05  1.1355990178473046e-05  1.1377875232194341e-05  1.1393925367189114e-05  1.1395546414000464e-05  1.1382569198177019e-05  1.1361939962622650e-05  1.1341524715744189e-05  1.1325602513717074e-05  1.1314829693523768e-05  1.1308166259941038e-05  1.1304281344640556e-05  1.1302107189560114e-05  1.1300926328497119e-05  1.1300299650406747e-05  1.1299973281812400e-05  1.1299805990882286e-05  1.1299721408254384e-05  1.1299679152626938e-05  1.1299658263861374e-05  1.1299648032943677e-05  1.1299643062725878e-05  1.1299640665431766e-05  1.1299639516497028e-05  1.1299638969199849e-05  1.1299638710518223e-05  1.1299638590511626e-05  1.1299638538920151e-05  2.2608263646785340e-05  2.2608263552343531e-05  1.1299638476435831e-05  1.1299638476435884e-05  1.1299638476436007e-05  1.1299638476436272e-05  1.1299638476436871e-05  1.1299638476438176e-05  1.1299638476441059e-05  1.1299638476447396e-05  1.1299638476461252e-05  1.1299638476491581e-05  1.1299638476557772e-05  1.1299638476701904e-05  1.1299638477015175e-05  1.1299638477694559e-05  1.1299638479164692e-05  1.1299638482339192e-05  1.1299638489180096e-05  1.1299638503894022e-05  1.1299638535489354e-05  1.1299638603243274e-05  1.1299638748401202e-05  1.1299639059258302e-05  1.1299639725055901e-05  1.1299641152105240e-05  1.1299644214552874e-05  1.1299650796315287e-05  1.1299664959380996e-05  1.1299695441401834e-05  1.1299760896523470e-05  1.1299900498499081e-05  1.1300193929169415e-05  1.1300793721283557e-05  1.1301959532228103e-05  1.1304081520822650e-05  1.1307593334316306e-05  1.1312370669667509e-05  1.1317266192547307e-05  1.1320768880024922e-05  1.1321703885560329e-05  1.1320011456018251e-05  1.1316657163110524e-05  1.1312647634407336e-05  1.1308860752693646e-05  1.1305797434500468e-05  1.1303578347182665e-05  1.1302092113571112e-05  1.1301147816228854e-05  1.1300566159082718e-05  1.1300212482234041e-05  1.1299997236412363e-05  1.1299864965506869e-05  1.1299782608551240e-05  1.1299730719263729e-05  1.1299697822918846e-05  1.1299677099499800e-05  1.1299664560370868e-05  1.1299658154587467e-05  1.1299657528558927e-05  1.1299664420304116e-05  1.1299683938931773e-05  1.1299727338136788e-05  1.1299817430360532e-05  1.1299998586795423e-05  1.1300354337612568e-05  1.1301036751678475e-05  1.1302312595522642e-05  1.1304631427746077e-05  1.1308722058410995e-05  1.1315734778646572e-05  1.1327484351701440e-05  1.1346879665706601e-05  1.1378276810206943e-05  1.1425898871032157e-05  1.1484762466859312e-05  1.1528980289454024e-05  1.1530338686083105e-05  1.1491211652200315e-05  1.1435089872299996e-05  1.1384651092649437e-05  1.1348979442104010e-05  1.1326888968835823e-05  1.1314206431955560e-05  1.1307249188305390e-05  1.1303544458004851e-05  1.1301613713371810e-05  1.1300624615323346e-05  1.1300125254404581e-05  1.1299876355016795e-05  1.1299753695845103e-05  1.1299693852715487e-05  1.1299664912618603e-05  1.1299651024127363e-05  1.1299644402912648e-05  1.1299641264161870e-05  1.1299639783543540e-05  1.1299639088332469e-05  1.1299638763949518e-05  1.1299638615137283e-05  1.1299638551754172e-05  2.2608263664852681e-05  2.2608263552343562e-05  1.1299638476435846e-05  1.1299638476435911e-05  1.1299638476436068e-05  1.1299638476436409e-05  1.1299638476437185e-05  1.1299638476438889e-05  1.1299638476442675e-05  1.1299638476451040e-05  1.1299638476469470e-05  1.1299638476510060e-05  1.1299638476599231e-05  1.1299638476794668e-05  1.1299638477222152e-05  1.1299638478155011e-05  1.1299638480185765e-05  1.1299638484595911e-05  1.1299638494150516e-05  1.1299638514802944e-05  1.1299638559349487e-05  1.1299638655262852e-05  1.1299638861503340e-05  1.1299639304695304e-05  1.1299640257324439e-05  1.1299642307840846e-05  1.1299646733675675e-05  1.1299656326757653e-05  1.1299677237174282e-05  1.1299723119784171e-05  1.1299824475983585e-05  1.1300049501717002e-05  1.1300549000989333e-05  1.1301641213034444e-05  1.1303892518834928e-05  1.1308201322380840e-05  1.1315915306153222e-05  1.1327189013213843e-05  1.1339386688500298e-05  1.1348856030329860e-05  1.1351665716103135e-05  1.1347120010680933e-05  1.1338413532761456e-05  1.1328321210378414e-05  1.1319217902631795e-05  1.1312231620650529e-05  1.1307432969803409e-05  1.1304373191949962e-05  1.1302507377933221e-05  1.1301391989513640e-05  1.1300725387496423e-05  1.1300321858392206e-05  1.1300072981076889e-05  1.1299916685807013e-05  1.1299817228997724e-05  1.1299753579859954e-05  1.1299713084386838e-05  1.1299688144516421e-05  1.1299674614865719e-05  1.1299671341509615e-05  1.1299680807071569e-05  1.1299711375560133e-05  1.1299782356842545e-05  1.1299934276252006e-05  1.1300248595372412e-05  1.1300883819758700e-05  1.1302138083576992e-05  1.1304550433178223e-05  1.1309051551030747e-05  1.1317170695515821e-05  1.1331325421687985e-05  1.1355376624954999e-05  1.1396073212977334e-05  1.1465598372837520e-05  1.1580581956811059e-05  1.1736426705155541e-05  1.1858186292301393e-05  1.1856242715848072e-05  1.1744890280850822e-05  1.1594737800719961e-05  1.1470827176320265e-05  1.1392123218142939e-05  1.1347896193088720e-05  1.1324329285484735e-05  1.1312094116763831e-05  1.1305845217378662e-05  1.1302696090134086e-05  1.1301128685797431e-05  1.1300357689758003e-05  1.1299982573696009e-05  1.1299801862524168e-05  1.1299715558308083e-05  1.1299674647197163e-05  1.1299655375198500e-05  1.1299646343678948e-05  1.1299642129053685e-05  1.1299640169079591e-05  1.1299639260523019e-05  1.1299638841383466e-05  1.1299638650961615e-05  1.1299638570481564e-05  2.2608263691882648e-05  2.2608263552343599e-05  1.1299638476435868e-05  1.1299638476435951e-05  1.1299638476436151e-05  1.1299638476436598e-05  1.1299638476437610e-05  1.1299638476439860e-05  1.1299638476444876e-05  1.1299638476456045e-05  1.1299638476480815e-05  1.1299638476535728e-05  1.1299638476657203e-05  1.1299638476925303e-05  1.1299638477515722e-05  1.1299638478812824e-05  1.1299638481654957e-05  1.1299638487865575e-05  1.1299638501398763e-05  1.1299638530802998e-05  1.1299638594508136e-05  1.1299638732149579e-05  1.1299639028809743e-05  1.1299639666966778e-05  1.1299641038193315e-05  1.1299643984870814e-05  1.1299650328588908e-05  1.1299664042035898e-05  1.1299693897465566e-05  1.1299759589647688e-05  1.1299906245965764e-05  1.1300239601629072e-05  1.1301011337945413e-05  1.1302798558558329e-05  1.1306578298608692e-05  1.1313484290357808e-05  1.7015212595805152e-05  2.2801334939216554e-05  2.2895637075077974e-05  2.2987184719944715e-05  1.7196341851148137e-05  1.1402814590019174e-05  1.1385882069920943e-05  1.1362194758845248e-05  1.1340673853761810e-05  1.1324973439258978e-05  1.1314806973734645e-05  1.1308659611535147e-05  1.1305059769772279e-05  1.1302959520459336e-05  1.1301714339222935e-05  1.1300956906703751e-05  1.1300484144785028e-05  1.1300183213343721e-05  1.1299989493843036e-05  1.1299864444297697e-05  1.1299784287951228e-05  1.1299734274527060e-05  1.1299705885017017e-05  1.1299695929078177e-05  1.1299707510386779e-05  1.1299753809096781e-05  1.1299867046864661e-05  1.1300117456222090e-05  1.1300651332588123e-05  1.1301764019407416e-05  1.1304032664821657e-05  1.1308540899764465e-05  1.1317221456249762e-05  1.1333304533950567e-05  1.1361804523914911e-05  1.1410246098936967e-05  1.1491507428721555e-05  1.1630227563600659e-05  1.1854661575259795e-05  1.9044228590570134e-05  2.7882385184150158e-05  2.7758668566394769e-05  2.6533306849073889e-05  1.8295775387402804e-05  1.1620589152598383e-05  1.1463077107872252e-05  1.1380892381837997e-05  1.1339801110706588e-05  1.1319364057499902e-05  1.1309240494955074e-05  1.1304265756507398e-05  1.1301846481341158e-05  1.1300682713118650e-05  1.1300128571905984e-05  1.1299867054138019e-05  1.1299744552389646e-05  1.1299687514152947e-05  1.1299661081530021e-05  1.1299648875919140e-05  1.1299643254615024e-05  1.1299640670673221e-05  1.1299639484942171e-05  1.1299638942662997e-05  1.1299638698059496e-05  1.1299638595235600e-05  2.2608263728017883e-05  2.2608263552343619e-05  1.1299638476435887e-05  1.1299638476435995e-05  1.1299638476436253e-05  1.1299638476436832e-05  1.1299638476438155e-05  1.1299638476441108e-05  1.1299638476447742e-05  1.1299638476462601e-05  1.1299638476495794e-05  1.1299638476569893e-05  1.1299638476734986e-05  1.1299638477102002e-05  1.1299638477916197e-05  1.1299638479718035e-05  1.1299638483694922e-05  1.1299638492447102e-05  1.1299638511648376e-05  1.1299638553631680e-05  1.1299638645098153e-05  1.1299638843620816e-05  1.1299639272841844e-05  1.1299640197318692e-05  1.1299642181464440e-05  1.1299646427471862e-05  1.1299655497444852e-05  1.1299674873163882e-05  1.1299716387444607e-05  1.1299805987246309e-05  1.1300001955876105e-05  1.1300439594930324e-05  1.1301446137939326e-05  1.1303752183245501e-05  1.6975019918304960e-05  2.2678237209498374e-05  3.4146760908125829e-05  9.9731475497255506e-01  9.9832952757220761e-01  9.9871232624254214e-01  9.9909369785550928e-01  3.5477342890961175e-05  1.7327101900415916e-05  1.1427799626017850e-05  1.1383059292937450e-05  1.1349196405922698e-05  1.1328403618063870e-05  1.1316507539215264e-05  1.1309793871024141e-05  1.1305931631570555e-05  1.1303629289712660e-05  1.1302205199177594e-05  1.1301299092360007e-05  1.1300713013494745e-05  1.1300331638773118e-05  1.1300083913012176e-05  1.1299924442280390e-05  1.1299824095673383e-05  1.1299765198903384e-05  1.1299739681562321e-05  1.1299750267455474e-05  1.1299816448401848e-05  1.1299989598682418e-05  1.1300386532936128e-05  1.1301260175274851e-05  1.1303142654525821e-05  1.1307122164784667e-05  1.1315344968073869e-05  1.1331835164047540e-05  1.1363589953058320e-05  1.1421307691327249e-05  1.1518133779861453e-05  1.1669385217860421e-05  1.1893815277545304e-05  1.9170404140924310e-05  4.6389400534761309e-05  9.9989211618038454e-01  9.9989376017728682e-01  9.9986490069675871e-01  9.9981268640850463e-01  2.4595928539631300e-05  1.1554116168184177e-05  1.1427262481296512e-05  1.1361922951520779e-05  1.1329712746643602e-05  1.1313999808160455e-05  1.1306419742399680e-05  1.1302808858110393e-05  1.1301108781237213e-05  1.1300316145630720e-05  1.1299949416162946e-05  1.1299780709823557e-05  1.1299703414186927e-05  1.1299668094881401e-05  1.1299651981823178e-05  1.1299644636402048e-05  1.1299641288501072e-05  1.1299639762822159e-05  1.1299639068925018e-05  1.1299638757257823e-05  1.1299638626621937e-05  2.2608263774180633e-05  2.2608263552343667e-05  1.1299638476435916e-05  1.1299638476436050e-05  1.1299638476436378e-05  1.1299638476437130e-05  1.1299638476438831e-05  1.1299638476442665e-05  1.1299638476451337e-05  1.1299638476470885e-05  1.1299638476514859e-05  1.1299638476613710e-05  1.1299638476835543e-05  1.1299638477332454e-05  1.1299638478443389e-05  1.1299638480921582e-05  1.1299638486435865e-05  1.1299638498671559e-05  1.1299638525736289e-05  1.1299638585391105e-05  1.1299638716361156e-05  1.1299639002636764e-05  1.1299639625327561e-05  1.1299640972501817e-05  1.1299643870097860e-05  1.1299650063794747e-05  1.1299663218043182e-05  1.1299690977326942e-05  1.1299749209293004e-05  1.1299870725081534e-05  1.1300122496925335e-05  1.1300635908476615e-05  1.1301674022525612e-05  1.6963680434987194e-05  3.3982095103802526e-05  9.8704812194177149e-01  9.8796246243618280e-01  4.9999989918923465e-01  4.9999990079810974e-01  4.9999990049700044e-01  4.9999990152135027e-01  9.9899891162839705e-01  9.9935469077354888e-01  2.3476112058404531e-05  1.1454594725310066e-05  1.1392389975135016e-05  1.1352517720084088e-05  1.1330646249017912e-05  1.1318601787903732e-05  1.1311639103867285e-05  1.1307388905488810e-05  1.1304684945273595e-05  1.1302924417996782e-05  1.1301768683608638e-05  1.1301010958847530e-05  1.1300517506798629e-05  1.1300199624669995e-05  1.1299998760075376e-05  1.1299878056996030e-05  1.1299818299514557e-05  1.1299818686939232e-05  1.1299905405532311e-05  1.1300155475063701e-05  1.1300752662628131e-05  1.1302111525409988e-05  1.1305144058585852e-05  1.1311814820227587e-05  1.1326245819360450e-05  1.1356757187966776e-05  1.1419074096108174e-05  1.1537942616612913e-05  1.1733473309053593e-05  1.1988436707944580e-05  1.9310296962532096e-05  4.6021522600433298e-05  9.9986980119164970e-01  4.9999989958476104e-01  4.9999989737019457e-01  4.9999989667212091e-01  4.9999989631485936e-01  9.9961402396931776e-01  2.3874084607874555e-05  1.1482569939037943e-05  1.1392718685631345e-05  1.1344083126795009e-05  1.1320411022050005e-05  1.1309222814082100e-05  1.1304021729986848e-05  1.1301631495809951e-05  1.1300541543950579e-05  1.1300046970427973e-05  1.1299823177454152e-05  1.1299722031518916e-05  1.1299676318377944e-05  1.1299655641800133e-05  1.1299646277111288e-05  1.1299642028995989e-05  1.1299640099353890e-05  1.1299639223522860e-05  1.1299638830577494e-05  1.1299638665947634e-05  2.2608263832362313e-05  2.2608263552343721e-05  1.1299638476435955e-05  1.1299638476436126e-05  1.1299638476436537e-05  1.1299638476437484e-05  1.1299638476439644e-05  1.1299638476444549e-05  1.1299638476455686e-05  1.1299638476480961e-05  1.1299638476538190e-05  1.1299638476667742e-05  1.1299638476960607e-05  1.1299638477621662e-05  1.1299638479111507e-05  1.1299638482463077e-05  1.1299638489986823e-05  1.1299638506835672e-05  1.1299638544462191e-05  1.1299638628217669e-05  1.1299638813957058e-05  1.1299639224067851e-05  1.12996401250