<?xml version="1.0"?>
<VTKFile type="UnstructuredGrid"  version="0.1"  >
<UnstructuredGrid>
<Piece  NumberOfPoints="5151" NumberOfCells="10000">
<Points>
<DataArray  type="Float64"  NumberOfComponents="3"  format="ascii">0 0 0  0.02 0 0  0.04 0 0  0.06 0 0  0.08 0 0  0.1 0 0  0.12 0 0  0.14 0 0  0.16 0 0  0.18 0 0  0.2 0 0  0.22 0 0  0.24 0 0  0.26 0 0  0.28 0 0  0.3 0 0  0.32 0 0  0.34 0 0  0.36 0 0  0.38 0 0  0.4 0 0  0.42 0 0  0.44 0 0  0.46 0 0  0.48 0 0  0.5 0 0  0.52 0 0  0.54 0 0  0.5600000000000001 0 0  0.58 0 0  0.6 0 0  0.62 0 0  0.64 0 0  0.66 0 0  0.68 0 0  0.7 0 0  0.72 0 0  0.74 0 0  0.76 0 0  0.78 0 0  0.8 0 0  0.82 0 0  0.84 0 0  0.86 0 0  0.88 0 0  0.9 0 0  0.92 0 0  0.9399999999999999 0 0  0.96 0 0  0.98 0 0  1 0 0  1.02 0 0  1.04 0 0  1.06 0 0  1.08 0 0  1.1 0 0  1.12 0 0  1.14 0 0  1.16 0 0  1.18 0 0  1.2 0 0  1.22 0 0  1.24 0 0  1.26 0 0  1.28 0 0  1.3 0 0  1.32 0 0  1.34 0 0  1.36 0 0  1.38 0 0  1.4 0 0  1.42 0 0  1.44 0 0  1.46 0 0  1.48 0 0  1.5 0 0  1.52 0 0  1.54 0 0  1.56 0 0  1.58 0 0  1.6 0 0  1.62 0 0  1.64 0 0  1.66 0 0  1.68 0 0  1.7 0 0  1.72 0 0  1.74 0 0  1.76 0 0  1.78 0 0  1.8 0 0  1.82 0 0  1.84 0 0  1.86 0 0  1.88 0 0  1.9 0 0  1.92 0 0  1.94 0 0  1.96 0 0  1.98 0 0  2 0 0  0 0.02 0  0.02 0.02 0  0.04 0.02 0  0.06 0.02 0  0.08 0.02 0  0.1 0.02 0  0.12 0.02 0  0.14 0.02 0  0.16 0.02 0  0.18 0.02 0  0.2 0.02 0  0.22 0.02 0  0.24 0.02 0  0.26 0.02 0  0.28 0.02 0  0.3 0.02 0  0.32 0.02 0  0.34 0.02 0  0.36 0.02 0  0.38 0.02 0  0.4 0.02 0  0.42 0.02 0  0.44 0.02 0  0.46 0.02 0  0.48 0.02 0  0.5 0.02 0  0.52 0.02 0  0.54 0.02 0  0.5600000000000001 0.02 0  0.58 0.02 0  0.6 0.02 0  0.62 0.02 0  0.64 0.02 0  0.66 0.02 0  0.68 0.02 0  0.7 0.02 0  0.72 0.02 0  0.74 0.02 0  0.76 0.02 0  0.78 0.02 0  0.8 0.02 0  0.82 0.02 0  0.84 0.02 0  0.86 0.02 0  0.88 0.02 0  0.9 0.02 0  0.92 0.02 0  0.9399999999999999 0.02 0  0.96 0.02 0  0.98 0.02 0  1 0.02 0  1.02 0.02 0  1.04 0.02 0  1.06 0.02 0  1.08 0.02 0  1.1 0.02 0  1.12 0.02 0  1.14 0.02 0  1.16 0.02 0  1.18 0.02 0  1.2 0.02 0  1.22 0.02 0  1.24 0.02 0  1.26 0.02 0  1.28 0.02 0  1.3 0.02 0  1.32 0.02 0  1.34 0.02 0  1.36 0.02 0  1.38 0.02 0  1.4 0.02 0  1.42 0.02 0  1.44 0.02 0  1.46 0.02 0  1.48 0.02 0  1.5 0.02 0  1.52 0.02 0  1.54 0.02 0  1.56 0.02 0  1.58 0.02 0  1.6 0.02 0  1.62 0.02 0  1.64 0.02 0  1.66 0.02 0  1.68 0.02 0  1.7 0.02 0  1.72 0.02 0  1.74 0.02 0  1.76 0.02 0  1.78 0.02 0  1.8 0.02 0  1.82 0.02 0  1.84 0.02 0  1.86 0.02 0  1.88 0.02 0  1.9 0.02 0  1.92 0.02 0  1.94 0.02 0  1.96 0.02 0  1.98 0.02 0  2 0.02 0  0 0.04 0  0.02 0.04 0  0.04 0.04 0  0.06 0.04 0  0.08 0.04 0  0.1 0.04 0  0.12 0.04 0  0.14 0.04 0  0.16 0.04 0  0.18 0.04 0  0.2 0.04 0  0.22 0.04 0  0.24 0.04 0  0.26 0.04 0  0.28 0.04 0  0.3 0.04 0  0.32 0.04 0  0.34 0.04 0  0.36 0.04 0  0.38 0.04 0  0.4 0.04 0  0.42 0.04 0  0.44 0.04 0  0.46 0.04 0  0.48 0.04 0  0.5 0.04 0  0.52 0.04 0  0.54 0.04 0  0.5600000000000001 0.04 0  0.58 0.04 0  0.6 0.04 0  0.62 0.04 0  0.64 0.04 0  0.66 0.04 0  0.68 0.04 0  0.7 0.04 0  0.72 0.04 0  0.74 0.04 0  0.76 0.04 0  0.78 0.04 0  0.8 0.04 0  0.82 0.04 0  0.84 0.04 0  0.86 0.04 0  0.88 0.04 0  0.9 0.04 0  0.92 0.04 0  0.9399999999999999 0.04 0  0.96 0.04 0  0.98 0.04 0  1 0.04 0  1.02 0.04 0  1.04 0.04 0  1.06 0.04 0  1.08 0.04 0  1.1 0.04 0  1.12 0.04 0  1.14 0.04 0  1.16 0.04 0  1.18 0.04 0  1.2 0.04 0  1.22 0.04 0  1.24 0.04 0  1.26 0.04 0  1.28 0.04 0  1.3 0.04 0  1.32 0.04 0  1.34 0.04 0  1.36 0.04 0  1.38 0.04 0  1.4 0.04 0  1.42 0.04 0  1.44 0.04 0  1.46 0.04 0  1.48 0.04 0  1.5 0.04 0  1.52 0.04 0  1.54 0.04 0  1.56 0.04 0  1.58 0.04 0  1.6 0.04 0  1.62 0.04 0  1.64 0.04 0  1.66 0.04 0  1.68 0.04 0  1.7 0.04 0  1.72 0.04 0  1.74 0.04 0  1.76 0.04 0  1.78 0.04 0  1.8 0.04 0  1.82 0.04 0  1.84 0.04 0  1.86 0.04 0  1.88 0.04 0  1.9 0.04 0  1.92 0.04 0  1.94 0.04 0  1.96 0.04 0  1.98 0.04 0  2 0.04 0  0 0.06 0  0.02 0.06 0  0.04 0.06 0  0.06 0.06 0  0.08 0.06 0  0.1 0.06 0  0.12 0.06 0  0.14 0.06 0  0.16 0.06 0  0.18 0.06 0  0.2 0.06 0  0.22 0.06 0  0.24 0.06 0  0.26 0.06 0  0.28 0.06 0  0.3 0.06 0  0.32 0.06 0  0.34 0.06 0  0.36 0.06 0  0.38 0.06 0  0.4 0.06 0  0.42 0.06 0  0.44 0.06 0  0.46 0.06 0  0.48 0.06 0  0.5 0.06 0  0.52 0.06 0  0.54 0.06 0  0.5600000000000001 0.06 0  0.58 0.06 0  0.6 0.06 0  0.62 0.06 0  0.64 0.06 0  0.66 0.06 0  0.68 0.06 0  0.7 0.06 0  0.72 0.06 0  0.74 0.06 0  0.76 0.06 0  0.78 0.06 0  0.8 0.06 0  0.82 0.06 0  0.84 0.06 0  0.86 0.06 0  0.88 0.06 0  0.9 0.06 0  0.92 0.06 0  0.9399999999999999 0.06 0  0.96 0.06 0  0.98 0.06 0  1 0.06 0  1.02 0.06 0  1.04 0.06 0  1.06 0.06 0  1.08 0.06 0  1.1 0.06 0  1.12 0.06 0  1.14 0.06 0  1.16 0.06 0  1.18 0.06 0  1.2 0.06 0  1.22 0.06 0  1.24 0.06 0  1.26 0.06 0  1.28 0.06 0  1.3 0.06 0  1.32 0.06 0  1.34 0.06 0  1.36 0.06 0  1.38 0.06 0  1.4 0.06 0  1.42 0.06 0  1.44 0.06 0  1.46 0.06 0  1.48 0.06 0  1.5 0.06 0  1.52 0.06 0  1.54 0.06 0  1.56 0.06 0  1.58 0.06 0  1.6 0.06 0  1.62 0.06 0  1.64 0.06 0  1.66 0.06 0  1.68 0.06 0  1.7 0.06 0  1.72 0.06 0  1.74 0.06 0  1.76 0.06 0  1.78 0.06 0  1.8 0.06 0  1.82 0.06 0  1.84 0.06 0  1.86 0.06 0  1.88 0.06 0  1.9 0.06 0  1.92 0.06 0  1.94 0.06 0  1.96 0.06 0  1.98 0.06 0  2 0.06 0  0 0.08 0  0.02 0.08 0  0.04 0.08 0  0.06 0.08 0  0.08 0.08 0  0.1 0.08 0  0.12 0.08 0  0.14 0.08 0  0.16 0.08 0  0.18 0.08 0  0.2 0.08 0  0.22 0.08 0  0.24 0.08 0  0.26 0.08 0  0.28 0.08 0  0.3 0.08 0  0.32 0.08 0  0.34 0.08 0  0.36 0.08 0  0.38 0.08 0  0.4 0.08 0  0.42 0.08 0  0.44 0.08 0  0.46 0.08 0  0.48 0.08 0  0.5 0.08 0  0.52 0.08 0  0.54 0.08 0  0.5600000000000001 0.08 0  0.58 0.08 0  0.6 0.08 0  0.62 0.08 0  0.64 0.08 0  0.66 0.08 0  0.68 0.08 0  0.7 0.08 0  0.72 0.08 0  0.74 0.08 0  0.76 0.08 0  0.78 0.08 0  0.8 0.08 0  0.82 0.08 0  0.84 0.08 0  0.86 0.08 0  0.88 0.08 0  0.9 0.08 0  0.92 0.08 0  0.9399999999999999 0.08 0  0.96 0.08 0  0.98 0.08 0  1 0.08 0  1.02 0.08 0  1.04 0.08 0  1.06 0.08 0  1.08 0.08 0  1.1 0.08 0  1.12 0.08 0  1.14 0.08 0  1.16 0.08 0  1.18 0.08 0  1.2 0.08 0  1.22 0.08 0  1.24 0.08 0  1.26 0.08 0  1.28 0.08 0  1.3 0.08 0  1.32 0.08 0  1.34 0.08 0  1.36 0.08 0  1.38 0.08 0  1.4 0.08 0  1.42 0.08 0  1.44 0.08 0  1.46 0.08 0  1.48 0.08 0  1.5 0.08 0  1.52 0.08 0  1.54 0.08 0  1.56 0.08 0  1.58 0.08 0  1.6 0.08 0  1.62 0.08 0  1.64 0.08 0  1.66 0.08 0  1.68 0.08 0  1.7 0.08 0  1.72 0.08 0  1.74 0.08 0  1.76 0.08 0  1.78 0.08 0  1.8 0.08 0  1.82 0.08 0  1.84 0.08 0  1.86 0.08 0  1.88 0.08 0  1.9 0.08 0  1.92 0.08 0  1.94 0.08 0  1.96 0.08 0  1.98 0.08 0  2 0.08 0  0 0.1 0  0.02 0.1 0  0.04 0.1 0  0.06 0.1 0  0.08 0.1 0  0.1 0.1 0  0.12 0.1 0  0.14 0.1 0  0.16 0.1 0  0.18 0.1 0  0.2 0.1 0  0.22 0.1 0  0.24 0.1 0  0.26 0.1 0  0.28 0.1 0  0.3 0.1 0  0.32 0.1 0  0.34 0.1 0  0.36 0.1 0  0.38 0.1 0  0.4 0.1 0  0.42 0.1 0  0.44 0.1 0  0.46 0.1 0  0.48 0.1 0  0.5 0.1 0  0.52 0.1 0  0.54 0.1 0  0.5600000000000001 0.1 0  0.58 0.1 0  0.6 0.1 0  0.62 0.1 0  0.64 0.1 0  0.66 0.1 0  0.68 0.1 0  0.7 0.1 0  0.72 0.1 0  0.74 0.1 0  0.76 0.1 0  0.78 0.1 0  0.8 0.1 0  0.82 0.1 0  0.84 0.1 0  0.86 0.1 0  0.88 0.1 0  0.9 0.1 0  0.92 0.1 0  0.9399999999999999 0.1 0  0.96 0.1 0  0.98 0.1 0  1 0.1 0  1.02 0.1 0  1.04 0.1 0  1.06 0.1 0  1.08 0.1 0  1.1 0.1 0  1.12 0.1 0  1.14 0.1 0  1.16 0.1 0  1.18 0.1 0  1.2 0.1 0  1.22 0.1 0  1.24 0.1 0  1.26 0.1 0  1.28 0.1 0  1.3 0.1 0  1.32 0.1 0  1.34 0.1 0  1.36 0.1 0  1.38 0.1 0  1.4 0.1 0  1.42 0.1 0  1.44 0.1 0  1.46 0.1 0  1.48 0.1 0  1.5 0.1 0  1.52 0.1 0  1.54 0.1 0  1.56 0.1 0  1.58 0.1 0  1.6 0.1 0  1.62 0.1 0  1.64 0.1 0  1.66 0.1 0  1.68 0.1 0  1.7 0.1 0  1.72 0.1 0  1.74 0.1 0  1.76 0.1 0  1.78 0.1 0  1.8 0.1 0  1.82 0.1 0  1.84 0.1 0  1.86 0.1 0  1.88 0.1 0  1.9 0.1 0  1.92 0.1 0  1.94 0.1 0  1.96 0.1 0  1.98 0.1 0  2 0.1 0  0 0.12 0  0.02 0.12 0  0.04 0.12 0  0.06 0.12 0  0.08 0.12 0  0.1 0.12 0  0.12 0.12 0  0.14 0.12 0  0.16 0.12 0  0.18 0.12 0  0.2 0.12 0  0.22 0.12 0  0.24 0.12 0  0.26 0.12 0  0.28 0.12 0  0.3 0.12 0  0.32 0.12 0  0.34 0.12 0  0.36 0.12 0  0.38 0.12 0  0.4 0.12 0  0.42 0.12 0  0.44 0.12 0  0.46 0.12 0  0.48 0.12 0  0.5 0.12 0  0.52 0.12 0  0.54 0.12 0  0.5600000000000001 0.12 0  0.58 0.12 0  0.6 0.12 0  0.62 0.12 0  0.64 0.12 0  0.66 0.12 0  0.68 0.12 0  0.7 0.12 0  0.72 0.12 0  0.74 0.12 0  0.76 0.12 0  0.78 0.12 0  0.8 0.12 0  0.82 0.12 0  0.84 0.12 0  0.86 0.12 0  0.88 0.12 0  0.9 0.12 0  0.92 0.12 0  0.9399999999999999 0.12 0  0.96 0.12 0  0.98 0.12 0  1 0.12 0  1.02 0.12 0  1.04 0.12 0  1.06 0.12 0  1.08 0.12 0  1.1 0.12 0  1.12 0.12 0  1.14 0.12 0  1.16 0.12 0  1.18 0.12 0  1.2 0.12 0  1.22 0.12 0  1.24 0.12 0  1.26 0.12 0  1.28 0.12 0  1.3 0.12 0  1.32 0.12 0  1.34 0.12 0  1.36 0.12 0  1.38 0.12 0  1.4 0.12 0  1.42 0.12 0  1.44 0.12 0  1.46 0.12 0  1.48 0.12 0  1.5 0.12 0  1.52 0.12 0  1.54 0.12 0  1.56 0.12 0  1.58 0.12 0  1.6 0.12 0  1.62 0.12 0  1.64 0.12 0  1.66 0.12 0  1.68 0.12 0  1.7 0.12 0  1.72 0.12 0  1.74 0.12 0  1.76 0.12 0  1.78 0.12 0  1.8 0.12 0  1.82 0.12 0  1.84 0.12 0  1.86 0.12 0  1.88 0.12 0  1.9 0.12 0  1.92 0.12 0  1.94 0.12 0  1.96 0.12 0  1.98 0.12 0  2 0.12 0  0 0.14 0  0.02 0.14 0  0.04 0.14 0  0.06 0.14 0  0.08 0.14 0  0.1 0.14 0  0.12 0.14 0  0.14 0.14 0  0.16 0.14 0  0.18 0.14 0  0.2 0.14 0  0.22 0.14 0  0.24 0.14 0  0.26 0.14 0  0.28 0.14 0  0.3 0.14 0  0.32 0.14 0  0.34 0.14 0  0.36 0.14 0  0.38 0.14 0  0.4 0.14 0  0.42 0.14 0  0.44 0.14 0  0.46 0.14 0  0.48 0.14 0  0.5 0.14 0  0.52 0.14 0  0.54 0.14 0  0.5600000000000001 0.14 0  0.58 0.14 0  0.6 0.14 0  0.62 0.14 0  0.64 0.14 0  0.66 0.14 0  0.68 0.14 0  0.7 0.14 0  0.72 0.14 0  0.74 0.14 0  0.76 0.14 0  0.78 0.14 0  0.8 0.14 0  0.82 0.14 0  0.84 0.14 0  0.86 0.14 0  0.88 0.14 0  0.9 0.14 0  0.92 0.14 0  0.9399999999999999 0.14 0  0.96 0.14 0  0.98 0.14 0  1 0.14 0  1.02 0.14 0  1.04 0.14 0  1.06 0.14 0  1.08 0.14 0  1.1 0.14 0  1.12 0.14 0  1.14 0.14 0  1.16 0.14 0  1.18 0.14 0  1.2 0.14 0  1.22 0.14 0  1.24 0.14 0  1.26 0.14 0  1.28 0.14 0  1.3 0.14 0  1.32 0.14 0  1.34 0.14 0  1.36 0.14 0  1.38 0.14 0  1.4 0.14 0  1.42 0.14 0  1.44 0.14 0  1.46 0.14 0  1.48 0.14 0  1
[...]
<PointData  Scalars="sols[i]"> 
<DataArray  type="Float64"  Name="sols[i]"  format="ascii">2.5931636496352439e-02  1.6090557841573493e-02  1.6090557834104929e-02  1.6090557820419175e-02  1.6090557797839737e-02  1.6090557763011566e-02  1.6090557712239204e-02  1.6090557641860809e-02  1.6090557548546734e-02  1.6090557429505936e-02  1.6090557282631049e-02  1.6090557106623996e-02  1.6090556901137993e-02  1.6090556666958727e-02  1.6090556406235225e-02  1.6090556122757910e-02  1.6090555822267625e-02  1.6090555512760972e-02  1.6090555204735818e-02  1.6090554911291868e-02  1.6090554647963492e-02  1.6090554432118775e-02  1.6090554281707515e-02  1.6090554213086299e-02  1.6090554237600817e-02  1.6090554356575817e-02  1.6090554554374109e-02  1.6090554789278819e-02  1.6090554982177305e-02  1.6090555003459690e-02  1.6090554659289318e-02  1.6090553679554937e-02  1.6090551711457641e-02  1.6090548324757557e-02  1.6090543036860475e-02  1.6090535367244543e-02  1.6090524929486233e-02  1.6090511563006626e-02  1.6090495494230739e-02  1.6090477501252733e-02  1.6090459049200437e-02  1.6090442381730480e-02  1.6090430586272741e-02  1.6090427595161539e-02  1.6090437755945472e-02  1.6090464154257012e-02  1.6090505658330079e-02  1.6090555042016601e-02  1.6090600578243106e-02  1.6090631434652683e-02  1.6090644609211224e-02  1.6090644782987995e-02  1.6090635718989010e-02  1.6090618184735690e-02  1.6090593089578623e-02  1.6090563522883346e-02  1.6090534340938923e-02  1.6090509914607365e-02  1.6090493161732975e-02  1.6090485276364825e-02  1.6090485647702119e-02  1.6090492270807451e-02  1.6090502546940090e-02  1.6090514053936612e-02  1.6090525002545406e-02  1.6090534351006047e-02  1.6090541695147290e-02  1.6090547069422943e-02  1.6090550751369132e-02  1.6090553112025150e-02  1.6090554520469248e-02  1.6090555293715017e-02  1.6090555678248786e-02  1.6090555850559022e-02  1.6090555927195736e-02  1.6090555978187659e-02  1.6090556040265391e-02  1.6090556128158170e-02  1.6090556243370732e-02  1.6090556380487685e-02  1.6090556531363626e-02  1.6090556687664063e-02  1.6090556842213586e-02  1.6090556989546249e-02  1.6090557125963630e-02  1.6090557249327297e-02  1.6090557358737208e-02  1.6090557454190246e-02  1.6090557536272108e-02  1.6090557605907101e-02  1.6090557664173090e-02  1.6090557712179387e-02  1.6090557751000666e-02  1.6090557781657890e-02  1.6090557805134086e-02  1.6090557822411079e-02  1.6090557834500276e-02  1.6090557842437639e-02  1.6090557847207740e-02  1.6090557849578389e-02  8.1398473050468809e-02  1.6090557841742632e-02  8.3871666016166382e-03  8.3871666022012313e-03  8.3871666032303734e-03  8.3871666048263797e-03  8.3871666071441819e-03  8.3871666103587251e-03  8.3871666146474681e-03  8.3871666201733776e-03  8.3871666270709053e-03  8.3871666354348381e-03  8.3871666453106761e-03  8.3871666566852476e-03  8.3871666694767255e-03  8.3871666835235170e-03  8.3871666985725658e-03  8.3871667142684497e-03  8.3871667301456086e-03  8.3871667456274519e-03  8.3871667600382022e-03  8.3871667726349089e-03  8.3871667826702287e-03  8.3871667894999825e-03  8.3871667927535917e-03  8.3871667925912111e-03  8.3871667900799179e-03  8.3871667877330157e-03  8.3871667902777093e-03  8.3871668057518590e-03  8.3871668470926822e-03  8.3871669344868973e-03  8.3871670989221526e-03  8.3871673876304426e-03  8.3871678724240662e-03  8.3871686621746731e-03  8.3871699205597099e-03  8.3871718890717005e-03  8.3871749122859992e-03  8.3871794571171807e-03  8.3871861125428132e-03  8.3871955601293458e-03  8.3872085368071978e-03  8.3872258800302378e-03  8.3872487807998396e-03  8.3872790906187652e-03  8.3873188455663890e-03  8.3873684206399821e-03  8.3874247554948638e-03  8.3874818001536487e-03  8.3875333943455622e-03  8.3875768245683414e-03  8.3876100261304903e-03  8.3876255574250567e-03  8.3876165125035020e-03  8.3875825265969546e-03  8.3875293169061952e-03  8.3874659462560251e-03  8.3874008740330210e-03  8.3873406375585303e-03  8.3872895585977107e-03  8.3872495111020906e-03  8.3872202131866792e-03  8.3872000216005382e-03  8.3871867912969928e-03  8.3871784807506879e-03  8.3871734408961594e-03  8.3871704732828047e-03  8.3871687695002643e-03  8.3871678133296650e-03  8.3871672883974960e-03  8.3871670067268093e-03  8.3871668592453534e-03  8.3871667838602403e-03  8.3871667458383595e-03  8.3871667261389646e-03  8.3871667146203088e-03  8.3871667061310232e-03  8.3871666982731283e-03  8.3871666901245197e-03  8.3871666815119941e-03  8.3871666726023138e-03  8.3871666636784296e-03  8.3871666550237815e-03  8.3871666468698057e-03  8.3871666393787649e-03  8.3871666326452744e-03  8.3871666267070835e-03  8.3871666215585890e-03  8.3871666171640887e-03  8.3871666134690669e-03  8.3871666104089453e-03  8.3871666079152318e-03  8.3871666059194324e-03  8.3871666043552340e-03  8.3871666031592532e-03  8.3871666022715952e-03  8.3871666016362319e-03  8.3871666012019161e-03  8.3871666009250473e-03  8.3871666007743866e-03  1.6090557849666273e-02  1.6090557834845864e-02  8.3871666021626962e-03  8.3871666029130942e-03  8.3871666041414467e-03  8.3871666059001024e-03  8.3871666082565577e-03  8.3871666112878343e-03  8.3871666150752960e-03  8.3871666196962992e-03  8.3871666252139342e-03  8.3871666316665434e-03  8.3871666390578775e-03  8.3871666473482702e-03  8.3871666564468081e-03  8.3871666662047265e-03  8.3871666764107865e-03  8.3871666867904003e-03  8.3871666970108012e-03  8.3871667066960625e-03  8.3871667154574100e-03  8.3871667229455191e-03  8.3871667289340170e-03  8.3871667334461889e-03  8.3871667369403227e-03  8.3871667405748720e-03  8.3871667465846896e-03  8.3871667588169899e-03  8.3871667835106259e-03  8.3871668304692677e-03  8.3871669149053179e-03  8.3871670604626549e-03  8.3871673043247139e-03  8.3871677059528978e-03  8.3871683619071418e-03  8.3871694302230775e-03  8.3871711683381166e-03  8.3871739870098293e-03  8.3871785161540105e-03  8.3871856635982459e-03  8.3871966254017924e-03  8.3872127965418722e-03  8.3872355961729390e-03  8.3872664609411524e-03  8.3873075932340384e-03  8.3873633881594977e-03  8.3874396641281865e-03  8.3875380346587584e-03  8.3876505226523658e-03  8.3877618230804411e-03  8.3878586584365620e-03  8.3879427576509027e-03  8.3880175960600167e-03  8.3880599155360790e-03  8.3880466192834749e-03  8.3879762656449697e-03  8.3878637973075244e-03  8.3877321207038221e-03  8.3875996937061038e-03  8.3874797843787284e-03  8.3873809472418907e-03  8.3873061615763311e-03  8.3872536290938941e-03  8.3872189512496954e-03  8.3871971897333444e-03  8.3871840751775732e-03  8.3871764184783558e-03  8.3871720556070173e-03  8.3871696143180425e-03  8.3871682662962875e-03  8.3871675292166662e-03  8.3871671293276346e-03  8.3871669139103620e-03  8.3871667986519724e-03  8.3871667372604521e-03  8.3871667043972503e-03  8.3871666862510921e-03  8.3871666753698934e-03  8.3871666678232409e-03  8.3871666616311888e-03  8.3871666558833786e-03  8.3871666502395303e-03  8.3871666446450437e-03  8.3871666391705599e-03  8.3871666339247995e-03  8.3871666290102915e-03  8.3871666245040125e-03  8.3871666204525016e-03  8.3871666168740550e-03  8.3871666137640688e-03  8.3871666111012318e-03  8.3871666088531516e-03  8.3871666069810467e-03  8.3871666054432734e-03  8.3871666041980056e-03  8.3871666032050082e-03  8.3871666024272935e-03  8.3871666018321342e-03  8.3871666013916046e-03  8.3871666010841700e-03  8.3871666008999268e-03  1.6090557847701793e-02  1.6090557822553309e-02  8.3871666030935679e-03  8.3871666040326465e-03  8.3871666054696099e-03  8.3871666073880961e-03  8.3871666097788244e-03  8.3871666126303437e-03  8.3871666159331133e-03  8.3871666196807405e-03  8.3871666238655544e-03  8.3871666284708792e-03  8.3871666334625165e-03  8.3871666387815812e-03  8.3871666443397531e-03  8.3871666500178899e-03  8.3871666556693068e-03  8.3871666611296629e-03  8.3871666662360105e-03  8.3871666708586080e-03  8.3871666749505951e-03  8.3871666786214834e-03  8.3871666822422624e-03  8.3871666865925742e-03  8.3871666930637068e-03  8.3871667039386380e-03  8.3871667227855863e-03  8.3871667550321754e-03  8.3871668088527709e-03  8.3871668966338450e-03  8.3871670375427598e-03  8.3871672622215249e-03  8.3871676215252263e-03  8.3871682027581440e-03  8.3871691592495058e-03  8.3871707622996845e-03  8.3871734874749627e-03  8.3871781464205774e-03  8.3871860625128920e-03  8.3871992494394081e-03  8.3872204735039070e-03  8.3872529911955679e-03  8.3872998307005613e-03  8.3873632132260983e-03  8.3874465444019383e-03  8.3875603951619557e-03  8.3877220851367486e-03  8.3879359968694993e-03  8.3881752902830037e-03  8.3883975929134637e-03  8.3885751657073859e-03  8.3887410860624262e-03  8.3889418518500042e-03  8.3890934942315032e-03  8.3890980503296426e-03  8.3889450922171559e-03  8.3886815195130127e-03  8.3883761537017782e-03  8.3880738219385149e-03  8.3878047587721324e-03  8.3875888797684851e-03  8.3874313696046723e-03  8.3873253036118520e-03  8.3872583581284226e-03  8.3872182063238921e-03  8.3871950548027475e-03  8.3871820940022972e-03  8.3871749886537689e-03  8.3871711448609294e-03  8.3871690787885745e-03  8.3871679686745720e-03  8.3871673695012604e-03  8.3871670435487176e-03  8.3871668645416533e-03  8.3871667652746576e-03  8.3871667096784251e-03  8.3871666781456834e-03  8.3871666598705416e-03  8.3871666488360818e-03  8.3871666416847485e-03  8.3871666365627519e-03  8.3871666324753097e-03  8.3871666289170102e-03  8.3871666256552894e-03  8.3871666226030504e-03  8.3871666197441550e-03  8.3871666170909527e-03  8.3871666146618472e-03  8.3871666124704612e-03  8.3871666105216017e-03  8.3871666088109007e-03  8.3871666073262567e-03  8.3871666060499599e-03  8.3871666049610792e-03  8.3871666040378594e-03  8.3871666032598203e-03  8.3871666026099131e-03  8.3871666020757362e-03  8.3871666016493828e-03  8.3871666013275760e-03  8.3871666011172304e-03  1.6090557843913077e-02  1.6090557803020336e-02  8.3871666044750045e-03  8.3871666055481946e-03  8.3871666071254798e-03  8.3871666091317257e-03  8.3871666115013684e-03  8.3871666141600437e-03  8.3871666170325550e-03  8.3871666200508541e-03  8.3871666231550360e-03  8.3871666262891834e-03  8.3871666293954712e-03  8.3871666324096521e-03  8.3871666352600405e-03  8.3871666378714741e-03  8.3871666401761080e-03  8.3871666421332890e-03  8.3871666437611257e-03  8.3871666451833821e-03  8.3871666466964357e-03  8.3871666488616551e-03  8.3871666526302343e-03  8.3871666595103124e-03  8.3871666717908605e-03  8.3871666928484710e-03  8.3871667275891293e-03  8.3871667831326713e-03  8.3871668699687946e-03  8.3871670040649819e-03  8.3871672109166635e-03  8.3871675335328525e-03  8.3871680482487127e-03  8.3871688956867925e-03  8.3871703399841634e-03  8.3871728781990049e-03  8.3871774326345263e-03  8.3871856653082843e-03  8.3872004361494560e-03  8.3872263390271842e-03  8.3872700168084024e-03  8.3873395392010854e-03  8.3874418543654142e-03  8.3875789271659427e-03  8.3877514353681987e-03  8.3879813152258238e-03  8.3883167871508929e-03  8.3887582963064217e-03  8.3891919428429780e-03  1.2161338545741886e-02  1.6100540770624110e-02  1.6100767765843495e-02  1.6101816421684168e-02  1.2163887841405652e-02  8.3913645997312700e-03  8.3911324375952646e-03  8.3905359654264031e-03  8.3898237849859576e-03  8.3891199351728025e-03  8.3885003699726863e-03  8.3880172520378448e-03  8.3876788152235284e-03  8.3874611695975571e-03  8.3873301168515269e-03  8.3872550443381284e-03  8.3872136128384893e-03  8.3871913564724978e-03  8.3871796160832016e-03  8.3871734852055575e-03  8.3871702910555158e-03  8.3871686180903328e-03  8.3871677308965543e-03  8.3871672516752788e-03  8.3871669869899183e-03  8.3871668373136678e-03  8.3871667507519568e-03  8.3871666996725887e-03  8.3871666689702730e-03  8.3871666501561110e-03  8.3871666383417073e-03  8.3871666306630233e-03  8.3871666254287693e-03  8.3871666216423554e-03  8.3871666187232581e-03  8.3871666163403014e-03  8.3871666143096983e-03  8.3871666125323423e-03  8.3871666109558412e-03  8.3871666095517786e-03  8.3871666083026129e-03  8.3871666071946346e-03  8.3871666062146182e-03  8.3871666053487604e-03  8.3871666045830361e-03  8.3871666039044834e-03  8.3871666033028223e-03  8.3871666027724445e-03  8.3871666023133968e-03  8.3871666019304496e-03  8.3871666016308993e-03  8.3871666014264119e-03  1.6090557838079798e-02  1.6090557774334463e-02  8.3871666063720825e-03  8.3871666074369043e-03  8.3871666090082897e-03  8.3871666109718787e-03  8.3871666132200647e-03  8.3871666156351311e-03  8.3871666180996979e-03  8.3871666205076207e-03  8.3871666227680660e-03  8.3871666248043607e-03  8.3871666265509497e-03  8.3871666279520547e-03  8.3871666289645989e-03  8.3871666295673823e-03  8.3871666297786803e-03  8.3871666296848231e-03  8.3871666294825752e-03  8.3871666295388010e-03  8.3871666304721464e-03  8.3871666332617240e-03  8.3871666393897561e-03  8.3871666510289145e-03  8.3871666712925456e-03  8.3871667045853672e-03  8.3871667571362510e-03  8.3871668378918147e-03  8.3871669601628032e-03  8.3871671448678582e-03  8.3871674271598327e-03  8.3871678701314609e-03  8.3871685930723902e-03  8.3871698289569203e-03  8.3871720389559305e-03  8.3871761339599886e-03  8.3871838862099295e-03  8.3871986511540354e-03  8.3872265236328708e-03  8.3872779078099265e-03  8.3873689085421730e-03  8.3875204704639012e-03  8.3877506178845415e-03  8.3880553316977597e-03  8.3884056352738889e-03  8.3888207334782989e-03  8.3894116085273477e-03  1.2162682976314577e-02  1.6105226910693871e-02  2.5987503609961968e-02  5.0333775186113894e-01  5.0307720064700212e-01  5.0338472766476927e-01  5.0452113733095660e-01  2.6016191642648883e-02  1.2172165281936641e-02  8.3945111330459097e-03  8.3929934295646786e-03  8.3913763703749745e-03  8.3899439451995926e-03  8.3888632932239207e-03  8.3881428139453533e-03  8.3877035421443449e-03  8.3874523679060512e-03  8.3873152361091819e-03  8.3872428095509988e-03  8.3872054313742922e-03  8.3871864235793864e-03  8.3871768258575400e-03  8.3871719767246149e-03  8.3871695053457755e-03  8.3871682239765027e-03  8.3871675425437314e-03  8.3871671683602884e-03  8.3871669553836001e-03  8.3871668296883872e-03  8.3871667529756295e-03  8.3871667047749465e-03  8.3871666737379159e-03  8.3871666533296106e-03  8.3871666396513091e-03  8.3871666303065567e-03  8.3871666237882343e-03  8.3871666191333433e-03  8.3871666157208282e-03  8.3871666131483495e-03  8.3871666111544965e-03  8.3871666095689454e-03  8.3871666082796763e-03  8.3871666072115273e-03  8.3871666063122640e-03  8.3871666055438544e-03  8.3871666048773250e-03  8.3871666042901871e-03  8.3871666037657455e-03  8.3871666032934826e-03  8.3871666028703280e-03  8.3871666025012847e-03  8.3871666021976057e-03  8.3871666019707282e-03  8.3871666018229488e-03  1.6090557830149309e-02  1.6090557735056851e-02  8.3871666088303539e-03  8.3871666096622440e-03  8.3871666110076990e-03  8.3871666127464661e-03  8.3871666147369468e-03  8.3871666168273355e-03  8.3871666188730532e-03  8.3871666207478972e-03  8.3871666223482855e-03  8.3871666235933399e-03  8.3871666244240833e-03  8.3871666248051101e-03  8.3871666247312630e-03  8.3871666242415696e-03  8.3871666234428266e-03  8.3871666225456051e-03  8.3871666219156298e-03  8.3871666221441345e-03  8.3871666241418959e-03  8.3871666292620450e-03  8.3871666394593914e-03  8.3871666574994314e-03  8.3871666872427086e-03  8.3871667340612716e-03  8.3871668055156157e-03  8.3871669125809029e-03  8.3871670720663243e-03  8.3871673116405442e-03  8.3871676805146664e-03  8.3871682722704514e-03  8.3871692733885478e-03  8.3871710652291959e-03  8.3871744348394395e-03  8.3871810012494542e-03  8.3871940522901884e-03  8.3872201192708700e-03  8.3872717535624867e-03  8.3873718977970687e-03  8.3875592339645137e-03  8.3878898724062054e-03  8.3884186248506902e-03  8.3891181811606430e-03  8.3898088690393703e-03  8.3903421107378064e-03  1.2164321165661083e-02  2.6003820041053071e-02  5.0454947131857097e-01  5.0344919200641525e-01  5.0283342064849368e-01  5.0225996800558814e-01  5.0246808929123721e-01  5.0326779995789528e-01  5.0630729572462674e-01  5.0993399350132718e-01  1.6139057989169099e-02  8.3996275629643295e-03  8.3961610425849677e-03  8.3928610021283268e-03  8.3904677375412785e-03  8.3889691547368393e-03  8.3881113005598740e-03  8.3876480808760100e-03  8.3874075915642519e-03  8.3872860187947963e-03  8.3872256277792278e-03  8.3871959331903393e-03  8.3871813840143642e-03  8.3871742318239757e-03  8.3871706767738603e-03  8.3871688739794621e-03  8.3871679320363119e-03  8.3871674200474162e-03  8.3871671283801911e-03  8.3871669536659983e-03  8.3871668438222115e-03  8.3871667717963956e-03  8.3871667229745116e-03  8.3871666890811651e-03  8.3871666651781779e-03  8.3871666481578309e-03  8.3871666359682778e-03  8.3871666272030288e-03  8.3871666208744384e-03  8.3871666162807779e-03  8.3871666129220375e-03  8.3871666104430136e-03  8.3871666085923082e-03  8.3871666071922823e-03  8.3871666061169740e-03  8.3871666052762750e-03  8.3871666046050567e-03  8.3871666040561815e-03  8.3871666035966169e-03  8.3871666032056397e-03  8.3871666028749493e-03  8.3871666026086554e-03  8.3871666024203945e-03  8.3871666023213869e-03  8.3871666022908523e-03  1.6090557820478260e-02  1.6090557684740152e-02  8.3871666118544592e-03  8.3871666121732961e-03  8.3871666130200979e-03  8.3871666143160665e-03  8.3871666158916447e-03  8.3871666175625911e-03  8.3871666191637183e-03  8.3871666205597665e-03  8.3871666216472907e-03  8.3871666223539684e-03  8.3871666226388170e-03  8.3871666224961273e-03  8.3871666219653314e-03  8.3871666211490104e-03  8.3871666202415349e-03  8.3871666195711944e-03  8.3871666196590009e-03  8.3871666212978428e-03  8.3871666256569548e-03  8.3871666344173274e-03  8.3871666499473214e-03  8.3871666755360626e-03  8.3871667157215495e-03  8.3871667767981550e-03  8.3871668676986574e-03  8.3871670016958753e-03  8.3871671999285694e-03  8.3871674989908305e-03  8.3871679675166615e-03  8.3871687425056320e-03  8.3871701085344169e-03  8.3871726690613619e-03  8.3871777127594166e-03  8.3871879856056101e-03  8.3872092870413886e-03  8.3872536819112782e-03  8.3873457070944117e-03  8.3875335819471319e-03  8.3879069175337544e-03  8.3886154654844551e-03  8.3898441826949673e-03  8.3915154464155716e-03  8.3928328448054871e-03  1.2168655057455034e-02  2.6004542383970909e-02  5.0469451054636560e-01  5.0420213059721075e-01  4.9999974100290462e-01  4.9999974100467731e-01  4.9999974101056222e-01  4.9999974101040728e-01  4.9999974100195493e-01  4.9999974099308131e-01  5.0662552746724465e-01  5.1363307028131688e-01  1.6174531759716528e-02  8.4059142244769184e-03  8.3985166250635738e-03  8.3933385792911604e-03  8.3903422927800782e-03  8.3887482755148277e-03  8.3879389725435606e-03  8.3875395893881870e-03  8.3873459334881575e-03  8.3872529937004843e-03  8.3872085969798286e-03  8.3871873785083435e-03  8.3871771758493793e-03  8.3871722062413487e-03  8.3871697323324099e-03  8.3871684595434991e-03  8.3871677740347834e-03  8.3871673828451523e-03  8.3871671445935499e-03  8.3871669898951291e-03  8.3871668838515819e-03  8.3871668082598078e-03  8.3871667530993465e-03  8.3871667124288899e-03  8.3871666824052588e-03  8.3871666603331212e-03  8.3871666442118312e-03  8.3871666325154581e-03  8.3871666240755514e-03  8.3871666180061755e-03  8.3871666136464962e-03  8.3871666105118214e-03  8.3871666082516727e-03  8.3871666066149923e-03  8.3871666054227238e-03  8.3871666045472401e-03  8.3871666038979314e-03  8.3871666034118775e-03  8.3871666030484425e-03  8.3871666027871584e-03  8.3871666026266948e-03  8.3871666025804124e-03  8.3871666026565771e-03  8.3871666028000180e-03  1.6090557809900520e-02  1.6090557624248610e-02  8.3871666153918483e-03  8.3871666149018045e-03  8.3871666149599282e-03  8.3871666155854001e-03  8.3871666165877753e-03  8.3871666177485447e-03  8.3871666188828770e-03  8.3871666198514130e-03  8.3871666205583978e-03  8.3871666209485267e-03  8.3871666210068273e-03  8.3871666207638012e-03  8.3871666203076990e-03  8.3871666198056995e-03  8.3871666195365849e-03  8.3871666199378143e-03  8.3871666216702861e-03  8.3871666257048002e-03  8.3871666334354965e-03  8.3871666468269164e-03  8.38716666860