<?xml version="1.0"?>
<VTKFile type="UnstructuredGrid"  version="0.1"  >
<UnstructuredGrid>
<Piece  NumberOfPoints="5151" NumberOfCells="10000">
<Points>
<DataArray  type="Float64"  NumberOfComponents="3"  format="ascii">0 0 0  0.02 0 0  0.04 0 0  0.06 0 0  0.08 0 0  0.1 0 0  0.12 0 0  0.14 0 0  0.16 0 0  0.18 0 0  0.2 0 0  0.22 0 0  0.24 0 0  0.26 0 0  0.28 0 0  0.3 0 0  0.32 0 0  0.34 0 0  0.36 0 0  0.38 0 0  0.4 0 0  0.42 0 0  0.44 0 0  0.46 0 0  0.48 0 0  0.5 0 0  0.52 0 0  0.54 0 0  0.5600000000000001 0 0  0.58 0 0  0.6 0 0  0.62 0 0  0.64 0 0  0.66 0 0  0.68 0 0  0.7 0 0  0.72 0 0  0.74 0 0  0.76 0 0  0.78 0 0  0.8 0 0  0.82 0 0  0.84 0 0  0.86 0 0  0.88 0 0  0.9 0 0  0.92 0 0  0.9399999999999999 0 0  0.96 0 0  0.98 0 0  1 0 0  1.02 0 0  1.04 0 0  1.06 0 0  1.08 0 0  1.1 0 0  1.12 0 0  1.14 0 0  1.16 0 0  1.18 0 0  1.2 0 0  1.22 0 0  1.24 0 0  1.26 0 0  1.28 0 0  1.3 0 0  1.32 0 0  1.34 0 0  1.36 0 0  1.38 0 0  1.4 0 0  1.42 0 0  1.44 0 0  1.46 0 0  1.48 0 0  1.5 0 0  1.52 0 0  1.54 0 0  1.56 0 0  1.58 0 0  1.6 0 0  1.62 0 0  1.64 0 0  1.66 0 0  1.68 0 0  1.7 0 0  1.72 0 0  1.74 0 0  1.76 0 0  1.78 0 0  1.8 0 0  1.82 0 0  1.84 0 0  1.86 0 0  1.88 0 0  1.9 0 0  1.92 0 0  1.94 0 0  1.96 0 0  1.98 0 0  2 0 0  0 0.02 0  0.02 0.02 0  0.04 0.02 0  0.06 0.02 0  0.08 0.02 0  0.1 0.02 0  0.12 0.02 0  0.14 0.02 0  0.16 0.02 0  0.18 0.02 0  0.2 0.02 0  0.22 0.02 0  0.24 0.02 0  0.26 0.02 0  0.28 0.02 0  0.3 0.02 0  0.32 0.02 0  0.34 0.02 0  0.36 0.02 0  0.38 0.02 0  0.4 0.02 0  0.42 0.02 0  0.44 0.02 0  0.46 0.02 0  0.48 0.02 0  0.5 0.02 0  0.52 0.02 0  0.54 0.02 0  0.5600000000000001 0.02 0  0.58 0.02 0  0.6 0.02 0  0.62 0.02 0  0.64 0.02 0  0.66 0.02 0  0.68 0.02 0  0.7 0.02 0  0.72 0.02 0  0.74 0.02 0  0.76 0.02 0  0.78 0.02 0  0.8 0.02 0  0.82 0.02 0  0.84 0.02 0  0.86 0.02 0  0.88 0.02 0  0.9 0.02 0  0.92 0.02 0  0.9399999999999999 0.02 0  0.96 0.02 0  0.98 0.02 0  1 0.02 0  1.02 0.02 0  1.04 0.02 0  1.06 0.02 0  1.08 0.02 0  1.1 0.02 0  1.12 0.02 0  1.14 0.02 0  1.16 0.02 0  1.18 0.02 0  1.2 0.02 0  1.22 0.02 0  1.24 0.02 0  1.26 0.02 0  1.28 0.02 0  1.3 0.02 0  1.32 0.02 0  1.34 0.02 0  1.36 0.02 0  1.38 0.02 0  1.4 0.02 0  1.42 0.02 0  1.44 0.02 0  1.46 0.02 0  1.48 0.02 0  1.5 0.02 0  1.52 0.02 0  1.54 0.02 0  1.56 0.02 0  1.58 0.02 0  1.6 0.02 0  1.62 0.02 0  1.64 0.02 0  1.66 0.02 0  1.68 0.02 0  1.7 0.02 0  1.72 0.02 0  1.74 0.02 0  1.76 0.02 0  1.78 0.02 0  1.8 0.02 0  1.82 0.02 0  1.84 0.02 0  1.86 0.02 0  1.88 0.02 0  1.9 0.02 0  1.92 0.02 0  1.94 0.02 0  1.96 0.02 0  1.98 0.02 0  2 0.02 0  0 0.04 0  0.02 0.04 0  0.04 0.04 0  0.06 0.04 0  0.08 0.04 0  0.1 0.04 0  0.12 0.04 0  0.14 0.04 0  0.16 0.04 0  0.18 0.04 0  0.2 0.04 0  0.22 0.04 0  0.24 0.04 0  0.26 0.04 0  0.28 0.04 0  0.3 0.04 0  0.32 0.04 0  0.34 0.04 0  0.36 0.04 0  0.38 0.04 0  0.4 0.04 0  0.42 0.04 0  0.44 0.04 0  0.46 0.04 0  0.48 0.04 0  0.5 0.04 0  0.52 0.04 0  0.54 0.04 0  0.5600000000000001 0.04 0  0.58 0.04 0  0.6 0.04 0  0.62 0.04 0  0.64 0.04 0  0.66 0.04 0  0.68 0.04 0  0.7 0.04 0  0.72 0.04 0  0.74 0.04 0  0.76 0.04 0  0.78 0.04 0  0.8 0.04 0  0.82 0.04 0  0.84 0.04 0  0.86 0.04 0  0.88 0.04 0  0.9 0.04 0  0.92 0.04 0  0.9399999999999999 0.04 0  0.96 0.04 0  0.98 0.04 0  1 0.04 0  1.02 0.04 0  1.04 0.04 0  1.06 0.04 0  1.08 0.04 0  1.1 0.04 0  1.12 0.04 0  1.14 0.04 0  1.16 0.04 0  1.18 0.04 0  1.2 0.04 0  1.22 0.04 0  1.24 0.04 0  1.26 0.04 0  1.28 0.04 0  1.3 0.04 0  1.32 0.04 0  1.34 0.04 0  1.36 0.04 0  1.38 0.04 0  1.4 0.04 0  1.42 0.04 0  1.44 0.04 0  1.46 0.04 0  1.48 0.04 0  1.5 0.04 0  1.52 0.04 0  1.54 0.04 0  1.56 0.04 0  1.58 0.04 0  1.6 0.04 0  1.62 0.04 0  1.64 0.04 0  1.66 0.04 0  1.68 0.04 0  1.7 0.04 0  1.72 0.04 0  1.74 0.04 0  1.76 0.04 0  1.78 0.04 0  1.8 0.04 0  1.82 0.04 0  1.84 0.04 0  1.86 0.04 0  1.88 0.04 0  1.9 0.04 0  1.92 0.04 0  1.94 0.04 0  1.96 0.04 0  1.98 0.04 0  2 0.04 0  0 0.06 0  0.02 0.06 0  0.04 0.06 0  0.06 0.06 0  0.08 0.06 0  0.1 0.06 0  0.12 0.06 0  0.14 0.06 0  0.16 0.06 0  0.18 0.06 0  0.2 0.06 0  0.22 0.06 0  0.24 0.06 0  0.26 0.06 0  0.28 0.06 0  0.3 0.06 0  0.32 0.06 0  0.34 0.06 0  0.36 0.06 0  0.38 0.06 0  0.4 0.06 0  0.42 0.06 0  0.44 0.06 0  0.46 0.06 0  0.48 0.06 0  0.5 0.06 0  0.52 0.06 0  0.54 0.06 0  0.5600000000000001 0.06 0  0.58 0.06 0  0.6 0.06 0  0.62 0.06 0  0.64 0.06 0  0.66 0.06 0  0.68 0.06 0  0.7 0.06 0  0.72 0.06 0  0.74 0.06 0  0.76 0.06 0  0.78 0.06 0  0.8 0.06 0  0.82 0.06 0  0.84 0.06 0  0.86 0.06 0  0.88 0.06 0  0.9 0.06 0  0.92 0.06 0  0.9399999999999999 0.06 0  0.96 0.06 0  0.98 0.06 0  1 0.06 0  1.02 0.06 0  1.04 0.06 0  1.06 0.06 0  1.08 0.06 0  1.1 0.06 0  1.12 0.06 0  1.14 0.06 0  1.16 0.06 0  1.18 0.06 0  1.2 0.06 0  1.22 0.06 0  1.24 0.06 0  1.26 0.06 0  1.28 0.06 0  1.3 0.06 0  1.32 0.06 0  1.34 0.06 0  1.36 0.06 0  1.38 0.06 0  1.4 0.06 0  1.42 0.06 0  1.44 0.06 0  1.46 0.06 0  1.48 0.06 0  1.5 0.06 0  1.52 0.06 0  1.54 0.06 0  1.56 0.06 0  1.58 0.06 0  1.6 0.06 0  1.62 0.06 0  1.64 0.06 0  1.66 0.06 0  1.68 0.06 0  1.7 0.06 0  1.72 0.06 0  1.74 0.06 0  1.76 0.06 0  1.78 0.06 0  1.8 0.06 0  1.82 0.06 0  1.84 0.06 0  1.86 0.06 0  1.88 0.06 0  1.9 0.06 0  1.92 0.06 0  1.94 0.06 0  1.96 0.06 0  1.98 0.06 0  2 0.06 0  0 0.08 0  0.02 0.08 0  0.04 0.08 0  0.06 0.08 0  0.08 0.08 0  0.1 0.08 0  0.12 0.08 0  0.14 0.08 0  0.16 0.08 0  0.18 0.08 0  0.2 0.08 0  0.22 0.08 0  0.24 0.08 0  0.26 0.08 0  0.28 0.08 0  0.3 0.08 0  0.32 0.08 0  0.34 0.08 0  0.36 0.08 0  0.38 0.08 0  0.4 0.08 0  0.42 0.08 0  0.44 0.08 0  0.46 0.08 0  0.48 0.08 0  0.5 0.08 0  0.52 0.08 0  0.54 0.08 0  0.5600000000000001 0.08 0  0.58 0.08 0  0.6 0.08 0  0.62 0.08 0  0.64 0.08 0  0.66 0.08 0  0.68 0.08 0  0.7 0.08 0  0.72 0.08 0  0.74 0.08 0  0.76 0.08 0  0.78 0.08 0  0.8 0.08 0  0.82 0.08 0  0.84 0.08 0  0.86 0.08 0  0.88 0.08 0  0.9 0.08 0  0.92 0.08 0  0.9399999999999999 0.08 0  0.96 0.08 0  0.98 0.08 0  1 0.08 0  1.02 0.08 0  1.04 0.08 0  1.06 0.08 0  1.08 0.08 0  1.1 0.08 0  1.12 0.08 0  1.14 0.08 0  1.16 0.08 0  1.18 0.08 0  1.2 0.08 0  1.22 0.08 0  1.24 0.08 0  1.26 0.08 0  1.28 0.08 0  1.3 0.08 0  1.32 0.08 0  1.34 0.08 0  1.36 0.08 0  1.38 0.08 0  1.4 0.08 0  1.42 0.08 0  1.44 0.08 0  1.46 0.08 0  1.48 0.08 0  1.5 0.08 0  1.52 0.08 0  1.54 0.08 0  1.56 0.08 0  1.58 0.08 0  1.6 0.08 0  1.62 0.08 0  1.64 0.08 0  1.66 0.08 0  1.68 0.08 0  1.7 0.08 0  1.72 0.08 0  1.74 0.08 0  1.76 0.08 0  1.78 0.08 0  1.8 0.08 0  1.82 0.08 0  1.84 0.08 0  1.86 0.08 0  1.88 0.08 0  1.9 0.08 0  1.92 0.08 0  1.94 0.08 0  1.96 0.08 0  1.98 0.08 0  2 0.08 0  0 0.1 0  0.02 0.1 0  0.04 0.1 0  0.06 0.1 0  0.08 0.1 0  0.1 0.1 0  0.12 0.1 0  0.14 0.1 0  0.16 0.1 0  0.18 0.1 0  0.2 0.1 0  0.22 0.1 0  0.24 0.1 0  0.26 0.1 0  0.28 0.1 0  0.3 0.1 0  0.32 0.1 0  0.34 0.1 0  0.36 0.1 0  0.38 0.1 0  0.4 0.1 0  0.42 0.1 0  0.44 0.1 0  0.46 0.1 0  0.48 0.1 0  0.5 0.1 0  0.52 0.1 0  0.54 0.1 0  0.5600000000000001 0.1 0  0.58 0.1 0  0.6 0.1 0  0.62 0.1 0  0.64 0.1 0  0.66 0.1 0  0.68 0.1 0  0.7 0.1 0  0.72 0.1 0  0.74 0.1 0  0.76 0.1 0  0.78 0.1 0  0.8 0.1 0  0.82 0.1 0  0.84 0.1 0  0.86 0.1 0  0.88 0.1 0  0.9 0.1 0  0.92 0.1 0  0.9399999999999999 0.1 0  0.96 0.1 0  0.98 0.1 0  1 0.1 0  1.02 0.1 0  1.04 0.1 0  1.06 0.1 0  1.08 0.1 0  1.1 0.1 0  1.12 0.1 0  1.14 0.1 0  1.16 0.1 0  1.18 0.1 0  1.2 0.1 0  1.22 0.1 0  1.24 0.1 0  1.26 0.1 0  1.28 0.1 0  1.3 0.1 0  1.32 0.1 0  1.34 0.1 0  1.36 0.1 0  1.38 0.1 0  1.4 0.1 0  1.42 0.1 0  1.44 0.1 0  1.46 0.1 0  1.48 0.1 0  1.5 0.1 0  1.52 0.1 0  1.54 0.1 0  1.56 0.1 0  1.58 0.1 0  1.6 0.1 0  1.62 0.1 0  1.64 0.1 0  1.66 0.1 0  1.68 0.1 0  1.7 0.1 0  1.72 0.1 0  1.74 0.1 0  1.76 0.1 0  1.78 0.1 0  1.8 0.1 0  1.82 0.1 0  1.84 0.1 0  1.86 0.1 0  1.88 0.1 0  1.9 0.1 0  1.92 0.1 0  1.94 0.1 0  1.96 0.1 0  1.98 0.1 0  2 0.1 0  0 0.12 0  0.02 0.12 0  0.04 0.12 0  0.06 0.12 0  0.08 0.12 0  0.1 0.12 0  0.12 0.12 0  0.14 0.12 0  0.16 0.12 0  0.18 0.12 0  0.2 0.12 0  0.22 0.12 0  0.24 0.12 0  0.26 0.12 0  0.28 0.12 0  0.3 0.12 0  0.32 0.12 0  0.34 0.12 0  0.36 0.12 0  0.38 0.12 0  0.4 0.12 0  0.42 0.12 0  0.44 0.12 0  0.46 0.12 0  0.48 0.12 0  0.5 0.12 0  0.52 0.12 0  0.54 0.12 0  0.5600000000000001 0.12 0  0.58 0.12 0  0.6 0.12 0  0.62 0.12 0  0.64 0.12 0  0.66 0.12 0  0.68 0.12 0  0.7 0.12 0  0.72 0.12 0  0.74 0.12 0  0.76 0.12 0  0.78 0.12 0  0.8 0.12 0  0.82 0.12 0  0.84 0.12 0  0.86 0.12 0  0.88 0.12 0  0.9 0.12 0  0.92 0.12 0  0.9399999999999999 0.12 0  0.96 0.12 0  0.98 0.12 0  1 0.12 0  1.02 0.12 0  1.04 0.12 0  1.06 0.12 0  1.08 0.12 0  1.1 0.12 0  1.12 0.12 0  1.14 0.12 0  1.16 0.12 0  1.18 0.12 0  1.2 0.12 0  1.22 0.12 0  1.24 0.12 0  1.26 0.12 0  1.28 0.12 0  1.3 0.12 0  1.32 0.12 0  1.34 0.12 0  1.36 0.12 0  1.38 0.12 0  1.4 0.12 0  1.42 0.12 0  1.44 0.12 0  1.46 0.12 0  1.48 0.12 0  1.5 0.12 0  1.52 0.12 0  1.54 0.12 0  1.56 0.12 0  1.58 0.12 0  1.6 0.12 0  1.62 0.12 0  1.64 0.12 0  1.66 0.12 0  1.68 0.12 0  1.7 0.12 0  1.72 0.12 0  1.74 0.12 0  1.76 0.12 0  1.78 0.12 0  1.8 0.12 0  1.82 0.12 0  1.84 0.12 0  1.86 0.12 0  1.88 0.12 0  1.9 0.12 0  1.92 0.12 0  1.94 0.12 0  1.96 0.12 0  1.98 0.12 0  2 0.12 0  0 0.14 0  0.02 0.14 0  0.04 0.14 0  0.06 0.14 0  0.08 0.14 0  0.1 0.14 0  0.12 0.14 0  0.14 0.14 0  0.16 0.14 0  0.18 0.14 0  0.2 0.14 0  0.22 0.14 0  0.24 0.14 0  0.26 0.14 0  0.28 0.14 0  0.3 0.14 0  0.32 0.14 0  0.34 0.14 0  0.36 0.14 0  0.38 0.14 0  0.4 0.14 0  0.42 0.14 0  0.44 0.14 0  0.46 0.14 0  0.48 0.14 0  0.5 0.14 0  0.52 0.14 0  0.54 0.14 0  0.5600000000000001 0.14 0  0.58 0.14 0  0.6 0.14 0  0.62 0.14 0  0.64 0.14 0  0.66 0.14 0  0.68 0.14 0  0.7 0.14 0  0.72 0.14 0  0.74 0.14 0  0.76 0.14 0  0.78 0.14 0  0.8 0.14 0  0.82 0.14 0  0.84 0.14 0  0.86 0.14 0  0.88 0.14 0  0.9 0.14 0  0.92 0.14 0  0.9399999999999999 0.14 0  0.96 0.14 0  0.98 0.14 0  1 0.14 0  1.02 0.14 0  1.04 0.14 0  1.06 0.14 0  1.08 0.14 0  1.1 0.14 0  1.12 0.14 0  1.14 0.14 0  1.16 0.14 0  1.18 0.14 0  1.2 0.14 0  1.22 0.14 0  1.24 0.14 0  1.26 0.14 0  1.28 0.14 0  1.3 0.14 0  1.32 0.14 0  1.34 0.14 0  1.36 0.14 0  1.38 0.14 0  1.4 0.14 0  1.42 0.14 0  1.44 0.14 0  1.46 0.14 0  1.48 0.14 0  1
[...]
<PointData  Scalars="sols[i]"> 
<DataArray  type="Float64"  Name="sols[i]"  format="ascii">4.0248547593430739e-01  3.7452326234264827e-01  3.7452376965809231e-01  3.7452469190641208e-01  3.7452619517244423e-01  3.7452850087712908e-01  3.7453188410895116e-01  3.7453666031481297e-01  3.7454316594537906e-01  3.7455173816225773e-01  3.7456269647745366e-01  3.7457632742314362e-01  3.7459287233239058e-01  3.7461251781117527e-01  3.7463538829049520e-01  3.7466154004989005e-01  3.7469095626504789e-01  3.7472354296260291e-01  3.7475912623539992e-01  3.7479745153978700e-01  3.7483818626317217e-01  3.7488092630728231e-01  3.7492520587807648e-01  3.7497050993420683e-01  3.7501628194705439e-01  3.7506192280165312e-01  3.7510677770464179e-01  3.7515010837958668e-01  3.7519105309114859e-01  3.7522858050522989e-01  3.7526144650745802e-01  3.7528816513909918e-01  3.7530700495392388e-01  3.7531601976257822e-01  3.7531311786538080e-01  3.7529616717883751e-01  3.7526312656691940e-01  3.7521218813000279e-01  3.7514192606475100e-01  3.7505142186813178e-01  3.7494029221066794e-01  3.7480874771321171e-01  3.7465756948136741e-01  3.7448803451340001e-01  3.7430181662157136e-01  3.7410088824364129e-01  3.7388745423546310e-01  3.7366394230072059e-01  3.7343304797468629e-01  3.7319777650695674e-01  3.7296138803738660e-01  3.7272718889634388e-01  3.7249819899017733e-01  3.7227685651095654e-01  3.7206501201048314e-01  3.7186437527383898e-01  3.7167705738783946e-01  3.7150552399622605e-01  3.7135184903896484e-01  3.7121696702175927e-01  3.7110089874454144e-01  3.7100333231488430e-01  3.7092347473255621e-01  3.7086050433549478e-01  3.7081449561501528e-01  3.7078517252951226e-01  3.7076969316463970e-01  3.7076321016849834e-01  3.7076145493724755e-01  3.7076065064734604e-01  3.7075439101798319e-01  3.7073064129966332e-01  3.7067063959349189e-01  3.7054900375452909e-01  3.7033499336598458e-01  3.6999708099844891e-01  3.6951461889177045e-01  3.6889873340834584e-01  3.6821877057673558e-01  3.6761144861279910e-01  3.6725019136371928e-01  3.6727415056485707e-01  3.6769490608891031e-01  3.6839162455926866e-01  3.6920184990699528e-01  3.7000681910872529e-01  3.7075289518146970e-01  3.7142761861471468e-01  3.7203193169129245e-01  3.7256617847074713e-01  3.7302806096603325e-01  3.7341544030006973e-01  3.7372902119711510e-01  3.7397328942823815e-01  3.7415597213171531e-01  3.7428678878316995e-01  3.7437609036530811e-01  3.7443367511271419e-01  3.7446783916566462e-01  3.7448460492175545e-01  4.4581474291206080e-01  3.7452326521010237e-01  3.3550317613245095e-01  3.3550427479916095e-01  3.3550629697140272e-01  3.3550954336693589e-01  3.3551438817636797e-01  3.3552128324150177e-01  3.3553074885849055e-01  3.3554335006326574e-01  3.3555966573742141e-01  3.3558025704758576e-01  3.3560563888514328e-01  3.3563625568121769e-01  3.3567246157282499e-01  3.3571450418733362e-01  3.3576251108229588e-01  3.3581647802813841e-01  3.3587625885014050e-01  3.3594155735351200e-01  3.3601192267818897e-01  3.3608675015971295e-01  3.3616528931878670e-01  3.3624665816601396e-01  3.3632986058302666e-01  3.3641379887113276e-01  3.3649727229416782e-01  3.3657895767870433e-01  3.3665736876398522e-01  3.3673079830969910e-01  3.3679725186672876e-01  3.3685438635314097e-01  3.3689946964316386e-01  3.3692937804058420e-01  3.3694064575598098e-01  3.3692957406098184e-01  3.3689239834379087e-01  3.3682550017251361e-01  3.3672563997192057e-01  3.3659019091287484e-01  3.3641738712336100e-01  3.3620639021386550e-01  3.3595736616079197e-01  3.3567148270782393e-01  3.3535078676868674e-01  3.3499803504083570e-01  3.3461651598003656e-01  3.3420992333771782e-01  3.3378233383024009e-01  3.3333829654589991e-01  3.3288292548197712e-01  3.3242180121766407e-01  3.3196055067729291e-01  3.3150412939378748e-01  3.3105610259960300e-01  3.3061846131029304e-01  3.3019243022179606e-01  3.2977960822088104e-01  3.2938195800989800e-01  3.2900031282008046e-01  3.2863280843487275e-01  3.2827545152192589e-01  3.2792345240763876e-01  3.2757065348749403e-01  3.2721026396276415e-01  3.2683778451228279e-01  3.2645054899902176e-01  3.2604400127181832e-01  3.2561053861289652e-01  3.2514179380216435e-01  3.2462907786733813e-01  3.2406067628371271e-01  3.2341710759959991e-01  3.2266587796663421e-01  3.2175703893787622e-01  3.2062936106110812e-01  3.1924120838190539e-01  3.1762647056878446e-01  3.1595514177637923e-01  3.1455790954771651e-01  3.1385083522369983e-01  3.1417821781030614e-01  3.1566050721768951e-01  3.1805069138760150e-01  3.2082598685650782e-01  3.2349523374055039e-01  3.2579313894384304e-01  3.2767531458889493e-01  3.2920959589587456e-01  3.3048226411582449e-01  3.3155546722381779e-01  3.3246269680555190e-01  3.3321980620946934e-01  3.3383669491318280e-01  3.3432425182933007e-01  3.3469661808492440e-01  3.3497059928838496e-01  3.3516393756645202e-01  3.3529350124671176e-01  3.3537383859962711e-01  3.3541608610905177e-01  3.7448536513951541e-01  3.7452378212437931e-01  3.3550429185832065e-01  3.3550598598766385e-01  3.3550897516163702e-01  3.3551353670810835e-01  3.3551996844256837e-01  3.3552858855982753e-01  3.3553974554891103e-01  3.3555381894319647e-01  3.3557120826211667e-01  3.3559231443991905e-01  3.3561751842170573e-01  3.3564715998929906e-01  3.3568151819572323e-01  3.3572079358430013e-01  3.3576509171020763e-01  3.3581440734313289e-01  3.3586860914022698e-01  3.3592742532361625e-01  3.3599043161588504e-01  3.3605704366124439e-01  3.3612651549410072e-01  3.3619794292131727e-01  3.3627026807621296e-01  3.3634227998545246e-01  3.3641260639683662e-01  3.3647969826085100e-01  3.3654180992591093e-01  3.3659698122336118e-01  3.3664302746885116e-01  3.3667754254541382e-01  3.3669791967432006e-01  3.3670139371482150e-01  3.3668510749476521e-01  3.3664620276890717e-01  3.3658193398137959e-01  3.3648979957869596e-01  3.3636768136241024e-01  3.3621397983898327e-01  3.3602774510759548e-01  3.3580871597709888e-01  3.3555731243924886e-01  3.3527464930283035e-01  3.3496237452133948e-01  3.3462249604064531e-01  3.3425721386801255e-01  3.3386882452342248e-01  3.3345977295125201e-01  3.3303287181314306e-01  3.3259150980252045e-01  3.3213954748069013e-01  3.3168071938255728e-01  3.3121754375361928e-01  3.3075016249168843e-01  3.3027598232460076e-01  3.2979100030127062e-01  3.2929160253312156e-01  3.2877433713664178e-01  3.2823338565095905e-01  3.2765826283793781e-01  3.2703599611766154e-01  3.2635423608451281e-01  3.2559954894104126e-01  3.2475775196625800e-01  3.2381898319080082e-01  3.2278067924760384e-01  3.2164746452375159e-01  3.2042767723199683e-01  3.1912548679481123e-01  3.1773608616733889e-01  3.1625308405941693e-01  3.1467337569384846e-01  3.1298973600573121e-01  3.1116609358487018e-01  3.0912578769963844e-01  3.0681644114937801e-01  3.0434230865148559e-01  3.0206414108593149e-01  3.0057164515222229e-01  3.0049680198062606e-01  3.0233152716395129e-01  3.0622147649338682e-01  3.1151834503734327e-01  3.1697335696162054e-01  3.2161176280379544e-01  3.2509986673407254e-01  3.2757446756084929e-01  3.2932955058767449e-01  3.3062770572529332e-01  3.3164315743053985e-01  3.3247180366546347e-01  3.3316015008813255e-01  3.3373023964555615e-01  3.3419494284642404e-01  3.3456518614603908e-01  3.3485222720841690e-01  3.3506754065825695e-01  3.3522192572713155e-01  3.3532458241979657e-01  3.3538214208126083e-01  3.7447207406703042e-01  3.7452472625922095e-01  3.3550635392352562e-01  3.3550901553621826e-01  3.3551344788999182e-01  3.3551984987019340e-01  3.3552842250722886e-01  3.3553934785127654e-01  3.3555280079092059e-01  3.3556896637336120e-01  3.3558804745767928e-01  3.3561026104080199e-01  3.3563582666976477e-01  3.3566495068455193e-01  3.3569780873194871e-01  3.3573452752799199e-01  3.3577516579186611e-01  3.3581969385968335e-01  3.3586797193316348e-01  3.3591972779971629e-01  3.3597453559205603e-01  3.3603179893996454e-01  3.3609074050585042e-01  3.3615039576214562e-01  3.3620960633494140e-01  3.3626700931939479e-01  3.3632102296410471e-01  3.3636983603267967e-01  3.3641141156046828e-01  3.3644351389009614e-01  3.3646376142666018e-01  3.3646970113398494e-01  3.3645889636171777e-01  3.3642901717694590e-01  3.3637792249585807e-01  3.3630372683338750e-01  3.3620485083313512e-01  3.3608005999005219e-01  3.3592849641070555e-01  3.3574970419303851e-01  3.3554364827372085e-01  3.3531071402338469e-01  3.3505160616518825e-01  3.3476729693998408e-01  3.3445886078004200e-01  3.3412723028978036e-01  3.3377297350505380e-01  3.3339618241153268e-01  3.3299659783237068e-01  3.3257403257137624e-01  3.3212876776707606e-01  3.3166141573025099e-01  3.3117200124976276e-01  3.3065815932917236e-01  3.3011305123442758e-01  3.2952452016286837e-01  3.2887736031030435e-01  3.2815630877178648e-01  3.2734549307454114e-01  3.2642439334602291e-01  3.2536392665098374e-01  3.2413122468505490e-01  3.2269683047220582e-01  3.2103364203595774e-01  3.1911732812617410e-01  3.1692917279584681e-01  3.1446490039163288e-01  3.1175571051755563e-01  3.0887148158715821e-01  3.0588175811255441e-01  3.0282633578039991e-01  2.9976588769411466e-01  2.9683725495360430e-01  2.9422779932989085e-01  2.9197987843184126e-01  2.8974780549899098e-01  2.8694777968176283e-01  2.8341530512549035e-01  2.7983914711670366e-01  2.7786216468406416e-01  2.7916363323154147e-01  2.8337045310090225e-01  2.8909486642527110e-01  2.9729814175111946e-01  3.0789089650334922e-01  3.1681530989133555e-01  3.2294031758808889e-01  3.2675465233564771e-01  3.2907656205823416e-01  3.3055349678020846e-01  3.3158229142803541e-01  3.3237017162987870e-01  3.3301322503441733e-01  3.3355247477689626e-01  3.3400547455039270e-01  3.3438143264339260e-01  3.3468726164721863e-01  3.3492929574910857e-01  3.3511323790136233e-01  3.3524342116192002e-01  3.3532140093729673e-01  3.7444612411438605e-01  3.7452627098648905e-01  3.3550967279436816e-01  3.3551364105796627e-01  3.3551990005540461e-01  3.3552849016665409e-01  3.3553949555667378e-01  3.3555298133898764e-01  3.3556898400673124e-01  3.3558752876202691e-01  3.3560864745744701e-01  3.3563238709489029e-01  3.3565880846821589e-01  3.3568797766083458e-01  3.3571995289512391e-01  3.3575476788783348e-01  3.3579241158153750e-01  3.3583280359154577e-01  3.3587576559296972e-01  3.3592099026444128e-01  3.3596801024562167e-01  3.3601617330607153e-01  3.3606462651044156e-01  3.3611230449373641e-01  3.3615791454975413e-01  3.3619991575529834e-01  3.3623649773999187e-01  3.3626557430366610e-01  3.3628481126824433e-01  3.3629170029945504e-01  3.3628367614398480e-01  3.3625826308805629e-01  3.3621322860716474e-01  3.3614671787215650e-01  3.3605734408832921e-01  3.3594421981451100e-01  3.3580693232968178e-01  3.3564548136595018e-01  3.3546020056918735e-01  3.3525167602004902e-01  3.3502066369774758e-01  3.3476800935860851e-01  3.3449452006342234e-01  3.3420078526335062e-01  3.3388693611497633e-01  3.3355227580661634e-01  3.3319488501941774e-01  3.3281137772143249e-01  3.3239703952309640e-01  3.3194651720697316e-01  3.3145440993658548e-01  3.3091491034788306e-01  3.3032033011075873e-01  3.2965819979535871e-01  3.2890765191760180e-01  3.2803764828250620e-01  3.2701104479956300e-01  3.2578896027581045e-01  3.2432863491160185e-01  3.2257865213357034e-01  3.2047560259423757e-01  3.1795382086700880e-01  3.1495661800204916e-01  3.1144673569385317e-01  3.0742871693691154e-01  3.0294466075606991e-01  2.9810921018715675e-01  2.9327109463880863e-01  2.8902195348788490e-01  2.8538807592324972e-01  2.8121470356389322e-01  2.7599793433194170e-01  2.7069813510415103e-01  2.6299971089994856e-01  2.5397224707572297e-01  2.5358621268384263e-01  2.5614029807146166e-01  2.6125969429224183e-01  2.6563551027885846e-01  2.6584420577817275e-01  2.6292089356832682e-01  2.5563883285809502e-01  2.5410198862907879e-01  2.7797391777341673e-01  2.9324748137778689e-01  3.0820944997803895e-01  3.1899385517836104e-01  3.2513574000834267e-01  3.2843236106904600e-01  3.3025326209563821e-01  3.3137399485209468e-01  3.3216965836238871e-01  3.3280200903906632e-01  3.3333457200204308e-01  3.3379071402928834e-01  3.3417938989268947e-01  3.3450522278037764e-01  3.3477171658727312e-01  3.3498163195697223e-01  3.3513609648926801e-01  3.3523279446534582e-01  3.7440569069215540e-01  3.7452864337071334e-01  3.3551462234377588e-01  3.3552013424849575e-01  3.3552847389388490e-01  3.3553944430847893e-01  3.3555299015931384e-01  3.3556907829990773e-01  3.3558764801172175e-01  3.3560861128084962e-01  3.3563186978732618e-01  3.3565733001252018e-01  3.3568491058582328e-01  3.3571454196011769e-01  3.3574615974940053e-01  3.3577969207624409e-01  3.3581503987716121e-01  3.3585204869430296e-01  3.3589047257849225e-01  3.3592993323261106e-01  3.3596987843825249e-01  3.3600955207452254e-01  3.3604797926079638e-01  3.3608395505418459e-01  3.3611602370578963e-01  3.3614244617001915e-01  3.3616116793299167e-01  3.3616981352429182e-01  3.3616573860734505e-01  3.3614615422412947e-01  3.3610831290274568e-01  3.3604973036638119e-01  3.3596840596818917e-01  3.3586299756199239e-01  3.3573290800262801e-01  3.3557826009776498e-01  3.3539977286310307e-01  3.3519858001177660e-01  3.3497603271183218e-01  3.3473351031262316e-01  3.3447223943025206e-01  3.3419311374801386e-01  3.3389649236548136e-01  3.3358192948218296e-01  3.3324775614594221e-01  3.3289044356828201e-01  3.3250385089670703e-01  3.3207862353678652e-01  3.3160218547110970e-01  3.3105976471330739e-01  3.3043505500915021e-01  3.2970899210135335e-01  3.2885710143513563e-01  3.2784513612809013e-01  3.2662366002388482e-01  3.2512504037207274e-01  3.2327182818391592e-01  3.2098331761187382e-01  3.1816795801814063e-01  3.1472125887481534e-01  3.1054298438656475e-01  3.0558324308643370e-01  2.9987940049903528e-01  2.9371537803977449e-01  2.8793701105213776e-01  2.8264611249357485e-01  2.7515869938685783e-01  2.6615263808579254e-01  2.5716917481538898e-01  2.4194226885126627e-01  2.3605927020331363e-01  2.3460304820967923e-01  2.3807463535045040e-01  2.4205429429672051e-01  2.4642711517297669e-01  2.7372391302942484e-01  4.3219763919096438e-01  4.5540820821656947e-01  4.7995099579460831e-01  4.9221727529979042e-01  4.5466474171949212e-01  4.5903193186822716e-01  2.4545887953028656e-01  2.4671641734593272e-01  2.7582381168185005e-01  2.9697109367499719e-01  3.1378088319614234e-01  3.2312953581302034e-01  3.2766142375228774e-01  3.2988322505876039e-01  3.3111355315775060e-01  3.3193500177631435e-01  3.3257597685542556e-01  3.3311743084718343e-01  3.3358562244089429e-01  3.3398897934576388e-01  3.3433112149025879e-01  3.3461457887018164e-01  3.3484096121765361e-01  3.3500975676611428e-01  3.3511696125409102e-01  3.7434937383441336e-01  3.7453211595013530e-01  3.3552162993172402e-01  3.3552874133145483e-01  3.3553922492833316e-01  3.3555259341418814e-01  3.3556862915951308e-01  3.3558720924844943e-01  3.3560820729888563e-01  3.3563146406877509e-01  3.3565679243908697e-01  3.3568399198717735e-01  3.3571286176461773e-01  3.3574320786799045e-01  3.3577484490188486e-01  3.3580758966456425e-01  3.3584124370751661e-01  3.3587556129450569e-01  3.3591020397452465e-01  3.3594468749876921e-01  3.3597832741737527e-01  3.3601020854392200e-01  3.3603918154004125e-01  3.3606386032108498e-01  3.3608259688797049e-01  3.3609343251787149e-01  3.3609404669162241e-01  3.3608174616883080e-01  3.3605354242016294e-01  3.3600633453586853e-01  3.3593717410292606e-01  3.3584357101435264e-01  3.3572378646234047e-01  3.3557704514871195e-01  3.3540359768163502e-01  3.3520459965024668e-01  3.3498184233389433e-01  3.3473741541183660e-01  3.3447336977791076e-01  3.3419140577858075e-01  3.3389256724832334e-01  3.3357691961872632e-01  3.3324319693579624e-01  3.3288838500126017e-01  3.3250702980429220e-01  3.3209010920531379e-01  3.3162359485318110e-01  3.3108708043114687e-01  3.3045329494362530e-01  3.2968959535802711e-01  3.2875840093115005e-01  3.2761368866611362e-01  3.2619545601775463e-01  3.2442320397041002e-01  3.2219113495478025e-01  3.1936736335772514e-01  3.1581555821001994e-01  3.1141383359469882e-01  3.0605598998119937e-01  2.9970598511715735e-01  2.9267705391689891e-01  2.8611980908820311e-01  2.7909600543919583e-01  2.6894474463903140e-01  2.5753148277889615e-01  2.3977307634218203e-01  2.2454097682326069e-01  2.1624586126383080e-01  2.1385160060660205e-01  2.1558729600526785e-01  3.6142365809253113e-01  4.3978787499100436e-01  4.6427438725923065e-01  4.7271900070712242e-01  4.7238777477270344e-01  4.9106133671184393e-01  5.1805118729087229e-01  5.6014378683292676e-01  5.9370174047034152e-01  6.1123795982916507e-01  6.0103290246604069e-01  5.6528062606409379e-01  4.9449697417478705e-01  4.3022651131797396e-01  3.3674113533018529e-01  3.4044504042196894e-01  3.3330905949135659e-01  3.2183264180163124e-01  3.2727272485598441e-01  3.2967528976932248e-01  3.3091209832279156e-01  3.3172724777310153e-01  3.3237513179768163e-01  3.3293128905002900e-01  3.3341509418091386e-01  3.3383161069543033e-01  3.3418361025625509e-01  3.3447376820327840e-01  3.3470373057658476e-01  3.3487258357357313e-01  3.3497732802848967e-01  3.7427740594876219e-01  3.7453698241131017e-01  3.3553114778416832e-01  3.3553967358749343e-01  3.3555211477397534e-01  3.3556768630303652e-01  3.3558599236901404e-01  3.3560681851021501e-01  3.3562998931377624e-01  3.3565530373813374e-01  3.3568251964740892e-01  3.3571136060920026e-01  3.3574152963989756e-01  3.3577272319351070e-01  3.3580464172575675e-01  3.3583699190907790e-01  3.3586947286057084e-01  3.3590173880393148e-01  3.3593334025170080e-01  3.3596365347302959e-01  3.3599180704162029e-01  3.3601665808674919e-01  3.3603681763638726e-01  3.3605066833041747e-01  3.3605633456494727e-01  3.3605160869279554e-01  3.3603386846475569e-01  3.3600005025264118e-01  3.3594675484689862e-01  3.3587050464189161e-01  3.3576810414735242e-01  3.3563704516956672e-01  3.3547588388563776e-01  3.3528448655387183e-01  3.3506403045541072e-01  3.3481671249514389e-01  3.3454524897670507e-01  3.3425231767550762e-01  3.3394004043666536e-01  3.3360951134783512e-01  3.3326029048890293e-01  3.3288981197987932e-01  3.3249271803033315e-01  3.3206011943948888e-01  3.3157838842182508e-01  3.3102720587791745e-01  3.3037691936748514e-01  3.2958567788065035e-01  3.2859792023321477e-01  3.2734683860180391e-01  3.2575412899399891e-01  3.2372242987968869e-01  3.2112528261315021e-01  3.1779756554473249e-01  3.1354395713300010e-01  3.0817511477854764e-01  3.0161634320217318e-01  2.9413049280354409e-01  2.8685573012299997e-01  2.7930604467924963e-01  2.6779086526729157e-01  2.5470962889787652e-01  2.3391175886014742e-01  2.1265175887738030e-01  2.0042528643363761e-01  1.9557911725701524e-01  3.7232230121516363e-01  4.4293548475907635e-01  4.7664716390303097e-01  4.6405350555823976e-01  4.8243822524592278e-01  5.0631734896856595e-01  5.5560585898521531e-01  6.0070378769862409e-01  6.4097182453938328e-01  6.7254410866590297e-01  6.4786343168404192e-01  6.0511713751804208e-01  6.2040711791559977e-01  6.3706065584820548e-01  6.2807620092383021e-01  6.4465626494204764e-01  5.8070995853165863e-01  4.5964321439518580e-01  4.6813604138287751e-01  4.9014450448709973e-01  4.9195533949194720e-01  3.6397058930417342e-01  3.2777458061421372e-01  3.2976787062594171e-01  3.3079685080074689e-01  3.3154925490874404e-01  3.3220188876614826e-01  3.3278196285751127e-01  3.3328745362287832e-01  3.3371691082663818e-01  3.3407282552825546e-01  3.3435938187711306e-01  3.3457948511620955e-01  3.3473300715170223e-01  3.3482068412233773e-01  3.7419254995335521e-01  3.7454352210049957e-01  3.3554360285323420e-01  3.3555308765425029e-01  3.3556701348575219e-01  3.3558434622789302e-01  3.3560450955613380e-01  3.3562718978664186e-01  3.3565216557081323e-01  3.3567920951550217e-01  3.3570804766575452e-01  3.3573835245063155e-01  3.3576975246384549e-01  3.3580185038880594e-01  3.3583424299046416e-01  3.3586653409328537e-01  3.3589832597105945e-01  3.3592917389756022e-01  3.3595850719951009e-01  3.3598553181173174e-01  3.3600912331841526e-01  3.3602782218577820e-01  3.36039916382