<?xml version="1.0"?>
<VTKFile type="UnstructuredGrid"  version="0.1"  >
<UnstructuredGrid>
<Piece  NumberOfPoints="5151" NumberOfCells="10000">
<Points>
<DataArray  type="Float64"  NumberOfComponents="3"  format="ascii">0 0 0  0.02 0 0  0.04 0 0  0.06 0 0  0.08 0 0  0.1 0 0  0.12 0 0  0.14 0 0  0.16 0 0  0.18 0 0  0.2 0 0  0.22 0 0  0.24 0 0  0.26 0 0  0.28 0 0  0.3 0 0  0.32 0 0  0.34 0 0  0.36 0 0  0.38 0 0  0.4 0 0  0.42 0 0  0.44 0 0  0.46 0 0  0.48 0 0  0.5 0 0  0.52 0 0  0.54 0 0  0.5600000000000001 0 0  0.58 0 0  0.6 0 0  0.62 0 0  0.64 0 0  0.66 0 0  0.68 0 0  0.7 0 0  0.72 0 0  0.74 0 0  0.76 0 0  0.78 0 0  0.8 0 0  0.82 0 0  0.84 0 0  0.86 0 0  0.88 0 0  0.9 0 0  0.92 0 0  0.9399999999999999 0 0  0.96 0 0  0.98 0 0  1 0 0  1.02 0 0  1.04 0 0  1.06 0 0  1.08 0 0  1.1 0 0  1.12 0 0  1.14 0 0  1.16 0 0  1.18 0 0  1.2 0 0  1.22 0 0  1.24 0 0  1.26 0 0  1.28 0 0  1.3 0 0  1.32 0 0  1.34 0 0  1.36 0 0  1.38 0 0  1.4 0 0  1.42 0 0  1.44 0 0  1.46 0 0  1.48 0 0  1.5 0 0  1.52 0 0  1.54 0 0  1.56 0 0  1.58 0 0  1.6 0 0  1.62 0 0  1.64 0 0  1.66 0 0  1.68 0 0  1.7 0 0  1.72 0 0  1.74 0 0  1.76 0 0  1.78 0 0  1.8 0 0  1.82 0 0  1.84 0 0  1.86 0 0  1.88 0 0  1.9 0 0  1.92 0 0  1.94 0 0  1.96 0 0  1.98 0 0  2 0 0  0 0.02 0  0.02 0.02 0  0.04 0.02 0  0.06 0.02 0  0.08 0.02 0  0.1 0.02 0  0.12 0.02 0  0.14 0.02 0  0.16 0.02 0  0.18 0.02 0  0.2 0.02 0  0.22 0.02 0  0.24 0.02 0  0.26 0.02 0  0.28 0.02 0  0.3 0.02 0  0.32 0.02 0  0.34 0.02 0  0.36 0.02 0  0.38 0.02 0  0.4 0.02 0  0.42 0.02 0  0.44 0.02 0  0.46 0.02 0  0.48 0.02 0  0.5 0.02 0  0.52 0.02 0  0.54 0.02 0  0.5600000000000001 0.02 0  0.58 0.02 0  0.6 0.02 0  0.62 0.02 0  0.64 0.02 0  0.66 0.02 0  0.68 0.02 0  0.7 0.02 0  0.72 0.02 0  0.74 0.02 0  0.76 0.02 0  0.78 0.02 0  0.8 0.02 0  0.82 0.02 0  0.84 0.02 0  0.86 0.02 0  0.88 0.02 0  0.9 0.02 0  0.92 0.02 0  0.9399999999999999 0.02 0  0.96 0.02 0  0.98 0.02 0  1 0.02 0  1.02 0.02 0  1.04 0.02 0  1.06 0.02 0  1.08 0.02 0  1.1 0.02 0  1.12 0.02 0  1.14 0.02 0  1.16 0.02 0  1.18 0.02 0  1.2 0.02 0  1.22 0.02 0  1.24 0.02 0  1.26 0.02 0  1.28 0.02 0  1.3 0.02 0  1.32 0.02 0  1.34 0.02 0  1.36 0.02 0  1.38 0.02 0  1.4 0.02 0  1.42 0.02 0  1.44 0.02 0  1.46 0.02 0  1.48 0.02 0  1.5 0.02 0  1.52 0.02 0  1.54 0.02 0  1.56 0.02 0  1.58 0.02 0  1.6 0.02 0  1.62 0.02 0  1.64 0.02 0  1.66 0.02 0  1.68 0.02 0  1.7 0.02 0  1.72 0.02 0  1.74 0.02 0  1.76 0.02 0  1.78 0.02 0  1.8 0.02 0  1.82 0.02 0  1.84 0.02 0  1.86 0.02 0  1.88 0.02 0  1.9 0.02 0  1.92 0.02 0  1.94 0.02 0  1.96 0.02 0  1.98 0.02 0  2 0.02 0  0 0.04 0  0.02 0.04 0  0.04 0.04 0  0.06 0.04 0  0.08 0.04 0  0.1 0.04 0  0.12 0.04 0  0.14 0.04 0  0.16 0.04 0  0.18 0.04 0  0.2 0.04 0  0.22 0.04 0  0.24 0.04 0  0.26 0.04 0  0.28 0.04 0  0.3 0.04 0  0.32 0.04 0  0.34 0.04 0  0.36 0.04 0  0.38 0.04 0  0.4 0.04 0  0.42 0.04 0  0.44 0.04 0  0.46 0.04 0  0.48 0.04 0  0.5 0.04 0  0.52 0.04 0  0.54 0.04 0  0.5600000000000001 0.04 0  0.58 0.04 0  0.6 0.04 0  0.62 0.04 0  0.64 0.04 0  0.66 0.04 0  0.68 0.04 0  0.7 0.04 0  0.72 0.04 0  0.74 0.04 0  0.76 0.04 0  0.78 0.04 0  0.8 0.04 0  0.82 0.04 0  0.84 0.04 0  0.86 0.04 0  0.88 0.04 0  0.9 0.04 0  0.92 0.04 0  0.9399999999999999 0.04 0  0.96 0.04 0  0.98 0.04 0  1 0.04 0  1.02 0.04 0  1.04 0.04 0  1.06 0.04 0  1.08 0.04 0  1.1 0.04 0  1.12 0.04 0  1.14 0.04 0  1.16 0.04 0  1.18 0.04 0  1.2 0.04 0  1.22 0.04 0  1.24 0.04 0  1.26 0.04 0  1.28 0.04 0  1.3 0.04 0  1.32 0.04 0  1.34 0.04 0  1.36 0.04 0  1.38 0.04 0  1.4 0.04 0  1.42 0.04 0  1.44 0.04 0  1.46 0.04 0  1.48 0.04 0  1.5 0.04 0  1.52 0.04 0  1.54 0.04 0  1.56 0.04 0  1.58 0.04 0  1.6 0.04 0  1.62 0.04 0  1.64 0.04 0  1.66 0.04 0  1.68 0.04 0  1.7 0.04 0  1.72 0.04 0  1.74 0.04 0  1.76 0.04 0  1.78 0.04 0  1.8 0.04 0  1.82 0.04 0  1.84 0.04 0  1.86 0.04 0  1.88 0.04 0  1.9 0.04 0  1.92 0.04 0  1.94 0.04 0  1.96 0.04 0  1.98 0.04 0  2 0.04 0  0 0.06 0  0.02 0.06 0  0.04 0.06 0  0.06 0.06 0  0.08 0.06 0  0.1 0.06 0  0.12 0.06 0  0.14 0.06 0  0.16 0.06 0  0.18 0.06 0  0.2 0.06 0  0.22 0.06 0  0.24 0.06 0  0.26 0.06 0  0.28 0.06 0  0.3 0.06 0  0.32 0.06 0  0.34 0.06 0  0.36 0.06 0  0.38 0.06 0  0.4 0.06 0  0.42 0.06 0  0.44 0.06 0  0.46 0.06 0  0.48 0.06 0  0.5 0.06 0  0.52 0.06 0  0.54 0.06 0  0.5600000000000001 0.06 0  0.58 0.06 0  0.6 0.06 0  0.62 0.06 0  0.64 0.06 0  0.66 0.06 0  0.68 0.06 0  0.7 0.06 0  0.72 0.06 0  0.74 0.06 0  0.76 0.06 0  0.78 0.06 0  0.8 0.06 0  0.82 0.06 0  0.84 0.06 0  0.86 0.06 0  0.88 0.06 0  0.9 0.06 0  0.92 0.06 0  0.9399999999999999 0.06 0  0.96 0.06 0  0.98 0.06 0  1 0.06 0  1.02 0.06 0  1.04 0.06 0  1.06 0.06 0  1.08 0.06 0  1.1 0.06 0  1.12 0.06 0  1.14 0.06 0  1.16 0.06 0  1.18 0.06 0  1.2 0.06 0  1.22 0.06 0  1.24 0.06 0  1.26 0.06 0  1.28 0.06 0  1.3 0.06 0  1.32 0.06 0  1.34 0.06 0  1.36 0.06 0  1.38 0.06 0  1.4 0.06 0  1.42 0.06 0  1.44 0.06 0  1.46 0.06 0  1.48 0.06 0  1.5 0.06 0  1.52 0.06 0  1.54 0.06 0  1.56 0.06 0  1.58 0.06 0  1.6 0.06 0  1.62 0.06 0  1.64 0.06 0  1.66 0.06 0  1.68 0.06 0  1.7 0.06 0  1.72 0.06 0  1.74 0.06 0  1.76 0.06 0  1.78 0.06 0  1.8 0.06 0  1.82 0.06 0  1.84 0.06 0  1.86 0.06 0  1.88 0.06 0  1.9 0.06 0  1.92 0.06 0  1.94 0.06 0  1.96 0.06 0  1.98 0.06 0  2 0.06 0  0 0.08 0  0.02 0.08 0  0.04 0.08 0  0.06 0.08 0  0.08 0.08 0  0.1 0.08 0  0.12 0.08 0  0.14 0.08 0  0.16 0.08 0  0.18 0.08 0  0.2 0.08 0  0.22 0.08 0  0.24 0.08 0  0.26 0.08 0  0.28 0.08 0  0.3 0.08 0  0.32 0.08 0  0.34 0.08 0  0.36 0.08 0  0.38 0.08 0  0.4 0.08 0  0.42 0.08 0  0.44 0.08 0  0.46 0.08 0  0.48 0.08 0  0.5 0.08 0  0.52 0.08 0  0.54 0.08 0  0.5600000000000001 0.08 0  0.58 0.08 0  0.6 0.08 0  0.62 0.08 0  0.64 0.08 0  0.66 0.08 0  0.68 0.08 0  0.7 0.08 0  0.72 0.08 0  0.74 0.08 0  0.76 0.08 0  0.78 0.08 0  0.8 0.08 0  0.82 0.08 0  0.84 0.08 0  0.86 0.08 0  0.88 0.08 0  0.9 0.08 0  0.92 0.08 0  0.9399999999999999 0.08 0  0.96 0.08 0  0.98 0.08 0  1 0.08 0  1.02 0.08 0  1.04 0.08 0  1.06 0.08 0  1.08 0.08 0  1.1 0.08 0  1.12 0.08 0  1.14 0.08 0  1.16 0.08 0  1.18 0.08 0  1.2 0.08 0  1.22 0.08 0  1.24 0.08 0  1.26 0.08 0  1.28 0.08 0  1.3 0.08 0  1.32 0.08 0  1.34 0.08 0  1.36 0.08 0  1.38 0.08 0  1.4 0.08 0  1.42 0.08 0  1.44 0.08 0  1.46 0.08 0  1.48 0.08 0  1.5 0.08 0  1.52 0.08 0  1.54 0.08 0  1.56 0.08 0  1.58 0.08 0  1.6 0.08 0  1.62 0.08 0  1.64 0.08 0  1.66 0.08 0  1.68 0.08 0  1.7 0.08 0  1.72 0.08 0  1.74 0.08 0  1.76 0.08 0  1.78 0.08 0  1.8 0.08 0  1.82 0.08 0  1.84 0.08 0  1.86 0.08 0  1.88 0.08 0  1.9 0.08 0  1.92 0.08 0  1.94 0.08 0  1.96 0.08 0  1.98 0.08 0  2 0.08 0  0 0.1 0  0.02 0.1 0  0.04 0.1 0  0.06 0.1 0  0.08 0.1 0  0.1 0.1 0  0.12 0.1 0  0.14 0.1 0  0.16 0.1 0  0.18 0.1 0  0.2 0.1 0  0.22 0.1 0  0.24 0.1 0  0.26 0.1 0  0.28 0.1 0  0.3 0.1 0  0.32 0.1 0  0.34 0.1 0  0.36 0.1 0  0.38 0.1 0  0.4 0.1 0  0.42 0.1 0  0.44 0.1 0  0.46 0.1 0  0.48 0.1 0  0.5 0.1 0  0.52 0.1 0  0.54 0.1 0  0.5600000000000001 0.1 0  0.58 0.1 0  0.6 0.1 0  0.62 0.1 0  0.64 0.1 0  0.66 0.1 0  0.68 0.1 0  0.7 0.1 0  0.72 0.1 0  0.74 0.1 0  0.76 0.1 0  0.78 0.1 0  0.8 0.1 0  0.82 0.1 0  0.84 0.1 0  0.86 0.1 0  0.88 0.1 0  0.9 0.1 0  0.92 0.1 0  0.9399999999999999 0.1 0  0.96 0.1 0  0.98 0.1 0  1 0.1 0  1.02 0.1 0  1.04 0.1 0  1.06 0.1 0  1.08 0.1 0  1.1 0.1 0  1.12 0.1 0  1.14 0.1 0  1.16 0.1 0  1.18 0.1 0  1.2 0.1 0  1.22 0.1 0  1.24 0.1 0  1.26 0.1 0  1.28 0.1 0  1.3 0.1 0  1.32 0.1 0  1.34 0.1 0  1.36 0.1 0  1.38 0.1 0  1.4 0.1 0  1.42 0.1 0  1.44 0.1 0  1.46 0.1 0  1.48 0.1 0  1.5 0.1 0  1.52 0.1 0  1.54 0.1 0  1.56 0.1 0  1.58 0.1 0  1.6 0.1 0  1.62 0.1 0  1.64 0.1 0  1.66 0.1 0  1.68 0.1 0  1.7 0.1 0  1.72 0.1 0  1.74 0.1 0  1.76 0.1 0  1.78 0.1 0  1.8 0.1 0  1.82 0.1 0  1.84 0.1 0  1.86 0.1 0  1.88 0.1 0  1.9 0.1 0  1.92 0.1 0  1.94 0.1 0  1.96 0.1 0  1.98 0.1 0  2 0.1 0  0 0.12 0  0.02 0.12 0  0.04 0.12 0  0.06 0.12 0  0.08 0.12 0  0.1 0.12 0  0.12 0.12 0  0.14 0.12 0  0.16 0.12 0  0.18 0.12 0  0.2 0.12 0  0.22 0.12 0  0.24 0.12 0  0.26 0.12 0  0.28 0.12 0  0.3 0.12 0  0.32 0.12 0  0.34 0.12 0  0.36 0.12 0  0.38 0.12 0  0.4 0.12 0  0.42 0.12 0  0.44 0.12 0  0.46 0.12 0  0.48 0.12 0  0.5 0.12 0  0.52 0.12 0  0.54 0.12 0  0.5600000000000001 0.12 0  0.58 0.12 0  0.6 0.12 0  0.62 0.12 0  0.64 0.12 0  0.66 0.12 0  0.68 0.12 0  0.7 0.12 0  0.72 0.12 0  0.74 0.12 0  0.76 0.12 0  0.78 0.12 0  0.8 0.12 0  0.82 0.12 0  0.84 0.12 0  0.86 0.12 0  0.88 0.12 0  0.9 0.12 0  0.92 0.12 0  0.9399999999999999 0.12 0  0.96 0.12 0  0.98 0.12 0  1 0.12 0  1.02 0.12 0  1.04 0.12 0  1.06 0.12 0  1.08 0.12 0  1.1 0.12 0  1.12 0.12 0  1.14 0.12 0  1.16 0.12 0  1.18 0.12 0  1.2 0.12 0  1.22 0.12 0  1.24 0.12 0  1.26 0.12 0  1.28 0.12 0  1.3 0.12 0  1.32 0.12 0  1.34 0.12 0  1.36 0.12 0  1.38 0.12 0  1.4 0.12 0  1.42 0.12 0  1.44 0.12 0  1.46 0.12 0  1.48 0.12 0  1.5 0.12 0  1.52 0.12 0  1.54 0.12 0  1.56 0.12 0  1.58 0.12 0  1.6 0.12 0  1.62 0.12 0  1.64 0.12 0  1.66 0.12 0  1.68 0.12 0  1.7 0.12 0  1.72 0.12 0  1.74 0.12 0  1.76 0.12 0  1.78 0.12 0  1.8 0.12 0  1.82 0.12 0  1.84 0.12 0  1.86 0.12 0  1.88 0.12 0  1.9 0.12 0  1.92 0.12 0  1.94 0.12 0  1.96 0.12 0  1.98 0.12 0  2 0.12 0  0 0.14 0  0.02 0.14 0  0.04 0.14 0  0.06 0.14 0  0.08 0.14 0  0.1 0.14 0  0.12 0.14 0  0.14 0.14 0  0.16 0.14 0  0.18 0.14 0  0.2 0.14 0  0.22 0.14 0  0.24 0.14 0  0.26 0.14 0  0.28 0.14 0  0.3 0.14 0  0.32 0.14 0  0.34 0.14 0  0.36 0.14 0  0.38 0.14 0  0.4 0.14 0  0.42 0.14 0  0.44 0.14 0  0.46 0.14 0  0.48 0.14 0  0.5 0.14 0  0.52 0.14 0  0.54 0.14 0  0.5600000000000001 0.14 0  0.58 0.14 0  0.6 0.14 0  0.62 0.14 0  0.64 0.14 0  0.66 0.14 0  0.68 0.14 0  0.7 0.14 0  0.72 0.14 0  0.74 0.14 0  0.76 0.14 0  0.78 0.14 0  0.8 0.14 0  0.82 0.14 0  0.84 0.14 0  0.86 0.14 0  0.88 0.14 0  0.9 0.14 0  0.92 0.14 0  0.9399999999999999 0.14 0  0.96 0.14 0  0.98 0.14 0  1 0.14 0  1.02 0.14 0  1.04 0.14 0  1.06 0.14 0  1.08 0.14 0  1.1 0.14 0  1.12 0.14 0  1.14 0.14 0  1.16 0.14 0  1.18 0.14 0  1.2 0.14 0  1.22 0.14 0  1.24 0.14 0  1.26 0.14 0  1.28 0.14 0  1.3 0.14 0  1.32 0.14 0  1.34 0.14 0  1.36 0.14 0  1.38 0.14 0  1.4 0.14 0  1.42 0.14 0  1.44 0.14 0  1.46 0.14 0  1.48 0.14 0  1
[...]
<PointData  Scalars="sols[i]"> 
<DataArray  type="Float64"  Name="sols[i]"  format="ascii">1.2427523302443351e-01  8.6638522001894910e-02  8.6638522792854056e-02  8.6638524120747573e-02  8.6638526114386702e-02  8.6638528920268854e-02  8.6638532658093528e-02  8.6638537393617404e-02  8.6638543142721583e-02  8.6638549896113748e-02  8.6638557649735784e-02  8.6638566429506458e-02  8.6638576303402270e-02  8.6638587377148440e-02  8.6638599772076483e-02  8.6638613585622845e-02  8.6638628837099760e-02  8.6638645404245651e-02  8.6638662959996546e-02  8.6638680924034803e-02  8.6638698449822568e-02  8.6638714474487580e-02  8.6638727864982251e-02  8.6638737697567109e-02  8.6638743706245108e-02  8.6638746925785035e-02  8.6638750532271241e-02  8.6638760844387444e-02  8.6638788388164981e-02  8.6638848844876826e-02  8.6638963597781657e-02  8.6639159475699709e-02  8.6639467175961896e-02  8.6639917766834051e-02  8.6640536677926039e-02  8.6641334793564506e-02  8.6642296855202333e-02  8.6643368631585685e-02  8.6644446508744477e-02  8.6645376250399711e-02  8.6645970779139311e-02  8.6646056778926908e-02  8.6645548323354291e-02  8.6644513094907116e-02  8.6643166753919837e-02  8.6641774468675992e-02  8.6640551393045467e-02  8.6639628176299902e-02  8.6639016829727009e-02  8.6638607096153980e-02  8.6638197810964462e-02  8.6637552781370336e-02  8.6636503906598730e-02  8.6635102958452739e-02  8.6633645389346634e-02  8.6632521041458591e-02  8.6632017390532973e-02  8.6632189478175720e-02  8.6632885824268521e-02  8.6633866983787056e-02  8.6634912002333767e-02  8.6635868521509077e-02  8.6636655055077297e-02  8.6637241053363165e-02  8.6637625104928756e-02  8.6637820284592590e-02  8.6637847186128658e-02  8.6637731617509567e-02  8.6637503832422247e-02  8.6637197460100471e-02  8.6636847605457173e-02  8.6636488388135216e-02  8.6636150463116637e-02  8.6635859006097354e-02  8.6635632447865166e-02  8.6635482031791389e-02  8.6635412108883175e-02  8.6635420992153517e-02  8.6635502159181435e-02  8.6635645602309269e-02  8.6635839162410355e-02  8.6636069729613241e-02  8.6636324241867291e-02  8.6636590453043019e-02  8.6636857473109605e-02  8.6637116103338130e-02  8.6637359000422465e-02  8.6637580706849598e-02  8.6637777582888431e-02  8.6637947670161281e-02  8.6638090509568000e-02  8.6638206928682182e-02  8.6638298806765199e-02  8.6638368820364603e-02  8.6638420170310287e-02  8.6638456293098492e-02  8.6638480566653187e-02  8.6638496030155776e-02  8.6638505142630079e-02  8.6638509600003286e-02  2.1496540069552114e-01  8.6638521967005624e-02  4.3724559070700338e-02  4.3724559347472498e-02  4.3724559718293095e-02  4.3724560118811262e-02  4.3724560495983986e-02  4.3724560797060316e-02  4.3724560954816166e-02  4.3724560888516131e-02  4.3724560520428876e-02  4.3724559799677681e-02  4.3724558725361649e-02  4.3724557363334700e-02  4.3724555853336129e-02  4.3724554404863822e-02  4.3724553281485626e-02  4.3724552774541500e-02  4.3724553168701275e-02  4.3724554703811522e-02  4.3724557539951137e-02  4.3724561735491163e-02  4.3724567250866583e-02  4.3724573993039736e-02  4.3724581916223179e-02  4.3724591191928758e-02  4.3724602454085937e-02  4.3724617110975396e-02  4.3724637693452605e-02  4.3724668177559073e-02  4.3724714179833202e-02  4.3724782878563871e-02  4.3724882470407136e-02  4.3725020940411426e-02  4.3725203922260023e-02  4.3725431482321941e-02  4.3725693821090594e-02  4.3725966222302813e-02  4.3726204205873406e-02  4.3726340895448773e-02  4.3726290156977786e-02  4.3725960812827681e-02  4.3725287455020162e-02  4.3724276032341435e-02  4.3723038059976932e-02  4.3721762510078727e-02  4.3720613847708936e-02  4.3719651939320772e-02  4.3718852499555635e-02  4.3718140968346218e-02  4.3717433910019629e-02  4.3716656718659423e-02  4.3715717554529451e-02  4.3714533620134340e-02  4.3713169734392411e-02  4.3711890813963102e-02  4.3711052234606806e-02  4.3710935519452772e-02  4.3711614218975639e-02  4.3712951706040636e-02  4.3714692561623192e-02  4.3716565040291373e-02  4.3718349792019745e-02  4.3719905617150508e-02  4.3721163869196243e-02  4.3722109055816909e-02  4.3722758744429852e-02  4.3723148539187184e-02  4.3723322626637182e-02  4.3723328227014122e-02  4.3723212181484547e-02  4.3723018561037587e-02  4.3722786828287299e-02  4.3722550462204246e-02  4.3722336088893622e-02  4.3722163153053599e-02  4.3722044105276747e-02  4.3721985021939122e-02  4.3721986537688662e-02  4.3722044958470554e-02  4.3722153431088956e-02  4.3722303066759380e-02  4.3722483944273589e-02  4.3722685947665638e-02  4.3722899419561333e-02  4.3723115632267752e-02  4.3723327093199295e-02  4.3723527709632129e-02  4.3723712840935264e-02  4.3723879265622018e-02  4.3724025087093853e-02  4.3724149597033309e-02  4.3724253110120632e-02  4.3724336779082343e-02  4.3724402395987808e-02  4.3724452185078345e-02  4.3724488594653166e-02  4.3724514099273110e-02  4.3724531023531056e-02  4.3724541386355030e-02  4.3724546753553833e-02  8.6638509639820727e-02  8.6638522639833626e-02  4.3724559275019753e-02  4.3724559347793394e-02  4.3724559243655620e-02  4.3724558776559251e-02  4.3724557796521443e-02  4.3724556202730067e-02  4.3724553933443211e-02  4.3724550953082947e-02  4.3724547248537859e-02  4.3724542834999928e-02  4.3724537766773652e-02  4.3724532148096344e-02  4.3724526140293381e-02  4.3724519963201418e-02  4.3724513890306675e-02  4.3724508238451178e-02  4.3724503354349534e-02  4.3724499601594913e-02  4.3724497353249889e-02  4.3724496996283238e-02  4.3724498954614256e-02  4.3724503736727503e-02  4.3724512010911390e-02  4.3724524705277441e-02  4.3724543120055068e-02  4.3724569025887332e-02  4.3724604704563540e-02  4.3724652869902285e-02  4.3724716390648413e-02  4.3724797731348047e-02  4.3724898041110162e-02  4.3725015865700136e-02  4.3725145546396088e-02  4.3725275504849302e-02  4.3725386791068278e-02  4.3725452470737253e-02  4.3725438620915644e-02  4.3725307916165017e-02  4.3725027279029265e-02  4.3724582556556327e-02  4.3724004846848956e-02  4.3723406337182885e-02  4.3722991659921891e-02  4.3722977124551671e-02  4.3723419726666657e-02  4.3724138379360525e-02  4.3724839136768702e-02  4.3725261288704451e-02  4.3725359903990985e-02  4.3725283483348400e-02  4.3724973325167796e-02  4.3723989190580993e-02  4.3722063572726150e-02  4.3719467569359849e-02  4.3716819461478949e-02  4.3714766860911219e-02  4.3713676335385684e-02  4.3713586939950907e-02  4.3714312529893121e-02  4.3715560737511074e-02  4.3717035226764366e-02  4.3718501023797082e-02  4.3719807189314362e-02  4.3720878926134965e-02  4.3721696635959012e-02  4.3722274562139396e-02  4.3722644536503638e-02  4.3722845497222246e-02  4.3722917415990707e-02  4.3722898005710734e-02  4.3722820995644840e-02  4.3722715252365971e-02  4.3722604379381608e-02  4.3722506630803515e-02  4.3722435069483291e-02  4.3722397933019436e-02  4.3722399173419316e-02  4.3722439127193376e-02  4.3722515263476092e-02  4.3722622954142920e-02  4.3722756213523846e-02  4.3722908365099594e-02  4.3723072605962601e-02  4.3723242453975845e-02  4.3723412075190107e-02  4.3723576498763524e-02  4.3723731732841678e-02  4.3723874797830686e-02  4.3724003693878702e-02  4.3724117318113279e-02  4.3724215345303977e-02  4.3724298084197831e-02  4.3724366321748739e-02  4.3724421169247893e-02  4.3724463926880404e-02  4.3724495981965393e-02  4.3724518741252785e-02  4.3724533558693740e-02  4.3724541589536120e-02  8.6638505363468232e-02  8.6638523681210167e-02  4.3724559460180820e-02  4.3724559037050886e-02  4.3724558073331060e-02  4.3724556342669196e-02  4.3724553679470611e-02  4.3724549998915424e-02  4.3724545293297515e-02  4.3724539612454108e-02  4.3724533044408057e-02  4.3724525703956463e-02  4.3724517729337928e-02  4.3724509283890801e-02  4.3724500559355006e-02  4.3724491778554211e-02  4.3724483196700116e-02  4.3724475102077623e-02  4.3724467818241727e-02  4.3724461710973050e-02  4.3724457203913540e-02  4.3724454806708932e-02  4.3724455158159509e-02  4.3724459083731154e-02  4.3724467661177706e-02  4.3724482279516863e-02  4.3724504665164657e-02  4.3724536835556334e-02  4.3724580927506182e-02  4.3724638839633942e-02  4.3724711633269575e-02  4.3724798665704202e-02  4.3724896497383398e-02  4.3724997733418827e-02  4.3725090132800057e-02  4.3725156525130260e-02  4.3725176250685595e-02  4.3725128860145547e-02  4.3725000493786588e-02  4.3724792588121786e-02  4.3724531870558164e-02  4.3724282849754999e-02  4.3724170671198048e-02  4.3724416917488670e-02  4.3725340434265902e-02  4.3727215602185052e-02  4.3729965244971282e-02  4.3733023944487873e-02  4.3735652113198270e-02  4.3737342352720622e-02  4.3738312084142736e-02  4.3739475261013648e-02  4.3741127639271737e-02  4.3741803984059115e-02  4.3739875323369475e-02  4.3735277027227931e-02  4.3729251471922560e-02  4.3723440655748833e-02  4.3718918513360260e-02  4.3716072651766538e-02  4.3714821625745998e-02  4.3714805636430314e-02  4.3715573562770400e-02  4.3716723329953071e-02  4.3717965838297922e-02  4.3719128064180948e-02  4.3720126644448264e-02  4.3720935934982018e-02  4.3721562148496346e-02  4.3722026322589397e-02  4.3722354684388169e-02  4.3722573899627359e-02  4.3722709038473952e-02  4.3722782815746139e-02  4.3722815310333188e-02  4.3722823811160619e-02  4.3722822689076769e-02  4.3722823309854948e-02  4.3722834035818642e-02  4.3722860352267356e-02  4.3722905127158346e-02  4.3722968985125440e-02  4.3723050758302066e-02  4.3723147968877163e-02  4.3723257300375247e-02  4.3723375023052319e-02  4.3723497350078383e-02  4.3723620712514628e-02  4.3723741950682869e-02  4.3723858426615962e-02  4.3723968066891820e-02  4.3724069347899880e-02  4.3724161237373646e-02  4.3724243107792764e-02  4.3724314639604737e-02  4.3724375734642697e-02  4.3724426459760601e-02  4.3724467030581943e-02  4.3724497814018062e-02  4.3724519268835707e-02  4.3724531704907699e-02  8.6638496675969429e-02  8.6638525056995180e-02  4.3724559455236775e-02  4.3724558108169831e-02  4.3724555840777633e-02  4.3724552487268857e-02  4.3724547941626307e-02  4.3724542189698928e-02  4.3724535311404689e-02  4.3724527460099756e-02  4.3724518834685748e-02  4.3724509655695756e-02  4.3724500149377538e-02  4.3724490539099020e-02  4.3724481041767599e-02  4.3724471867290199e-02  4.3724463220362580e-02  4.3724455305402574e-02  4.3724448336854016e-02  4.3724442558125257e-02  4.3724438272789358e-02  4.3724435890968402e-02  4.3724435991555843e-02  4.3724439396523852e-02  4.3724447246494255e-02  4.3724461056797899e-02  4.3724482720819607e-02  4.3724514414169524e-02  4.3724558342848219e-02  4.3724616277926176e-02  4.3724688839481642e-02  4.3724774549704054e-02  4.3724868788760876e-02  4.3724962974445655e-02  4.3725044548407810e-02  4.3725098646539361e-02  4.3725112538682387e-02  4.3725083800742220e-02  4.3725032332379760e-02  4.3725014285671444e-02  4.3725133058430787e-02  4.3725544378451657e-02  4.3726467063669124e-02  4.3728211364092925e-02  4.3731168688061012e-02  4.3735622569464519e-02  4.3741243186388418e-02  4.3746738469235324e-02  4.3750505031392814e-02  6.6078344157310259e-02  8.6744086053158476e-02  8.6754595499021717e-02  8.6778027077272835e-02  6.6116043999401269e-02  4.3769626815855264e-02  4.3764610335882512e-02  4.3753650918779641e-02  4.3741098618522600e-02  4.3730150281752825e-02  4.3722135914773655e-02  4.3717243838456293e-02  4.3714938469657509e-02  4.3714413569383055e-02  4.3714926490179246e-02  4.3715936004435865e-02  4.3717105692973358e-02  4.3718252911450449e-02  4.3719292040485608e-02  4.3720191169203670e-02  4.3720944941596881e-02  4.3721559936570273e-02  4.3722047872095007e-02  4.3722422887483334e-02  4.3722700527753899e-02  4.3722897189231592e-02  4.3723029533294572e-02  4.3723113782603330e-02  4.3723164987072495e-02  4.3723196383444400e-02  4.3723218942966054e-02  4.3723241150695528e-02  4.3723269011885058e-02  4.3723306246667620e-02  4.3723354616400291e-02  4.3723414321305887e-02  4.3723484415295888e-02  4.3723563195629395e-02  4.3723648538652543e-02  4.3723738165706141e-02  4.3723829834049835e-02  4.3723921455940555e-02  4.3724011155169960e-02  4.3724097275109015e-02  4.3724178356275907e-02  4.3724253104655664e-02  4.3724320372934444e-02  4.3724379171197848e-02  4.3724428703458482e-02  4.3724468381619710e-02  4.3724497697459078e-02  4.3724515790572058e-02  8.6638482098107733e-02  8.6638526641658387e-02  4.3724559039922110e-02  4.3724556244287741e-02  4.3724552208156797e-02  4.3724546921933054e-02  4.3724540368615096e-02  4.3724532618187768e-02  4.3724523841329001e-02  4.3724514288736249e-02  4.3724504258324720e-02  4.3724494062761549e-02  4.3724484003310707e-02  4.3724474351227192e-02  4.3724465335632318e-02  4.3724457136532439e-02  4.3724449882594149e-02  4.3724443654758360e-02  4.3724438498266543e-02  4.3724434446814855e-02  4.3724431562970498e-02  4.3724429998234428e-02  4.3724430073695773e-02  4.3724432377515852e-02  4.3724437868006366e-02  4.3724447960667184e-02  4.3724464564793501e-02  4.3724490022152639e-02  4.3724526891292276e-02  4.3724577524823699e-02  4.3724643417998157e-02  4.3724724386986227e-02  4.3724817793250118e-02  4.3724918295687761e-02  4.3725018997381182e-02  4.3725115319052113e-02  4.3725213324805071e-02  4.3725344188635488e-02  4.3725585299537205e-02  4.3726084853073464e-02  4.3727079231309765e-02  4.3728886249088911e-02  4.3731862409122878e-02  4.3736301879896834e-02  4.3742314176392613e-02  4.3749762549069149e-02  4.3757811398443404e-02  6.6102296652620254e-02  8.6785880801031182e-02  1.2454915796161452e-01  5.0115316625179007e-01  5.0119503268384158e-01  5.0155261897049763e-01  5.0211973505711716e-01  1.2487468137199742e-01  6.6210148505857172e-02  4.3798379565970998e-02  4.3776171137944658e-02  4.3753301614680377e-02  4.3735181116173055e-02  4.3723306838555853e-02  4.3716798304238844e-02  4.3713989912345964e-02  4.3713379984721044e-02  4.3713921849721116e-02  4.3714985081430319e-02  4.3716226164753874e-02  4.3717471208984185e-02  4.3718636464360777e-02  4.3719682658783135e-02  4.3720592091375250e-02  4.3721358609186099e-02  4.3721983739017811e-02  4.3722475109031669e-02  4.3722845318949329e-02  4.3723110629280748e-02  4.3723289440082302e-02  4.3723400746842188e-02  4.3723462777339725e-02  4.3723491946778700e-02  4.3723502185729707e-02  4.3723504627222326e-02  4.3723507595277572e-02  4.3723516816191202e-02  4.3723535770690526e-02  4.3723566113534590e-02  4.3723608101792599e-02  4.3723660989749266e-02  4.3723723364372670e-02  4.3723793409066555e-02  4.3723869094516796e-02  4.3723948304042533e-02  4.3724028907469369e-02  4.3724108802448265e-02  4.3724185944783001e-02  4.3724258387384654e-02  4.3724324336012081e-02  4.3724382201442168e-02  4.3724430575471956e-02  4.3724467985952184e-02  4.3724492244111693e-02  8.6638459542162607e-02  8.6638528141301033e-02  4.3724557921671327e-02  4.3724553137935454e-02  4.3724546905855186e-02  4.3724539457893445e-02  4.3724530857336338e-02  4.3724521237014494e-02  4.3724510837421723e-02  4.3724499984681781e-02  4.3724489052562023e-02  4.3724478423086938e-02  4.3724468451921655e-02  4.3724459440505618e-02  4.3724451614739243e-02  4.3724445109559376e-02  4.3724439959507783e-02  4.3724436096838223e-02  4.3724433360332250e-02  4.3724431519393987e-02  4.3724430318761366e-02  4.3724429548829893e-02  4.3724429144602034e-02  4.3724429312048910e-02  4.3724430673672349e-02  4.3724434415084036e-02  4.3724442402026525e-02  4.3724457224584082e-02  4.3724482117472131e-02  4.3724520712444197e-02  4.3724576619279081e-02  4.3724652935246917e-02  4.3724751992807724e-02  4.3724876026325132e-02  4.3725030023467754e-02  4.3725228842035398e-02  4.3725511626133071e-02  4.3725967292049590e-02  4.3726774372096114e-02  4.3728254107460909e-02  4.3730920815961097e-02  4.3735480514928808e-02  4.3742639884832304e-02  4.3752312050808609e-02  4.3762835797952898e-02  4.3771763015356277e-02  6.6131755817420548e-02  1.2466808941998767e-01  5.0177106165603569e-01  5.0130473864160863e-01  5.0103618958081964e-01  5.0087078176727617e-01  5.0124295623531423e-01  5.0172040748660207e-01  5.0309048935107203e-01  5.0437336366096652e-01  8.7169874553018209e-02  4.3841450601558050e-02  4.3799749003017960e-02  4.3761536287792654e-02  4.3735894246523195e-02  4.3721587456561309e-02  4.3714806194306191e-02  4.3712324127666430e-02  4.3712069740968452e-02  4.3712877945125600e-02  4.3714141808823631e-02  4.3715557136759148e-02  4.3716970766954591e-02  4.3718301398512571e-02  4.3719502712995649e-02  4.3720548143024507e-02  4.3721425170540847e-02  4.3722132864321667e-02  4.3722679914624585e-02  4.3723082349403142e-02  4.3723360983882451e-02  4.3723538918996593e-02  4.3723639381099896e-02  4.3723684072786206e-02  4.3723692079821554e-02  4.3723679289567052e-02  4.3723658226798627e-02  4.3723638195265896e-02  4.3723625616751922e-02  4.3723624474491407e-02  4.3723636787962539e-02  4.3723663066979501e-02  4.3723702712166725e-02  4.3723754345117528e-02  4.3723816064517695e-02  4.3723885634497792e-02  4.3723960618832595e-02  4.3724038479332768e-02  4.3724116657880834e-02  4.3724192656356332e-02  4.3724264112417942e-02  4.3724328836075070e-02  4.3724384720559090e-02  4.3724429381520304e-02  4.3724459352314171e-02  8.6638426548636321e-02  8.6638529042663698e-02  4.3724555710731666e-02  4.3724548486206771e-02  4.3724539746686927e-02  4.3724530033138032e-02  4.3724519456409226e-02  4.3724508171564293e-02  4.3724496454993649e-02  4.3724484678886621e-02  4.3724473265698303e-02  4.3724462641639657e-02  4.3724453194505936e-02  4.3724445237324348e-02  4.3724438977803190e-02  4.3724434493361865e-02  4.3724431712347703e-02  4.3724430403569686e-02  4.3724430178126640e-02  4.3724430509306050e-02  4.3724430777685369e-02  4.3724430349009011e-02  4.3724428691403625e-02  4.3724425535413308e-02  4.3724421074608694e-02  4.3724416195875207e-02  4.3724412717413633e-02  4.3724413601241796e-02  4.3724423101324683e-02  4.3724446820547075e-02  4.3724491702658297e-02  4.3724566119374496e-02  4.3724680493339239e-02  4.3724849422952516e-02  4.3725097182126894e-02  4.3725469930671793e-02  4.3726060177176576e-02  4.3727052074203063e-02  4.3728799472426597e-02  4.3731948940781265e-02  4.3737602131519553e-02  4.3747425407672208e-02  4.3763192042534670e-02  4.3783589920447084e-02  4.3800275356221767e-02  6.6191478058491723e-02  1.2473647933488391e-01  5.0184383696042201e-01  5.0164551062702367e-01  4.9999161905400352e-01  4.9999161905459438e-01  4.9999161905732054e-01  4.9999161905783024e-01  4.9999161905347256e-01  4.9999161904925238e-01  5.0300608994396578e-01  5.0540523378061397e-01  8.7473651032819913e-02  4.3887548732399688e-02  4.3811726319626071e-02  4.3759166523480879e-02  4.3730769125840091e-02  4.3717382520394941e-02  4.3711970547183156e-02  4.3710488624310109e-02  4.3710855144964041e-02  4.3712053959656730e-02  4.3713595260779101e-02  4.3715234356744008e-02  4.3716837920040788e-02  4.3718325765348939e-02  4.3719647910604342e-02  4.3720776152421273e-02  4.3721700289638669e-02  4.3722424995963773e-02  4.3722966274635684e-02  4.3723347644175611e-02  4.3723596519165436e-02  4.3723741171572211e-02  4.3723808462305565e-02  4.3723822356504627e-02  4.3723803124339808e-02  4.3723767079030647e-02  4.3723726696292479e-02  4.3723690975511903e-02  4.3723665929071634e-02  4.3723655114449207e-02  4.3723660149905433e-02  4.3723681176968524e-02  4.3723717251044118e-02  4.3723766655511392e-02  4.3723827145074806e-02  4.3723896131300830e-02  4.3723970827024936e-02  4.3724048365495483e-02  4.3724125902113942e-02  4.3724200687661738e-02  4.3724270069400023e-02  4.3724331335765428e-02  4.3724381291816106e-02  4.3724415470561016e-02  8.6638380578464153e-02  8.6638528611982443e-02  4.3724551917600482e-02  4.3724541982236076e-02  4.3724530618405644e-02  4.3724518709463991e-02  4.3724506366189582e-02  4.3724493718592661e-02  4.3724481042223221e-02  4.3724468725552600e-02  4.3724457213643722e-02  4.3724446953459131e-02  4.3724438344497796e-02  4.3724431694668893e-02  4.3724427180819522e-02  4.3724424813766975e-02  4.3724424408825208e-02  4.3724425564570672e-02  4.3724427654769055e-02  4.3724429840716027e-02  4.3724431113395176e-02  4.3724430376394521e-02  4.37244265809