<?xml version="1.0"?>
<VTKFile type="UnstructuredGrid"  version="0.1"  >
<UnstructuredGrid>
<Piece  NumberOfPoints="5151" NumberOfCells="10000">
<Points>
<DataArray  type="Float64"  NumberOfComponents="3"  format="ascii">0 0 0  0.02 0 0  0.04 0 0  0.06 0 0  0.08 0 0  0.1 0 0  0.12 0 0  0.14 0 0  0.16 0 0  0.18 0 0  0.2 0 0  0.22 0 0  0.24 0 0  0.26 0 0  0.28 0 0  0.3 0 0  0.32 0 0  0.34 0 0  0.36 0 0  0.38 0 0  0.4 0 0  0.42 0 0  0.44 0 0  0.46 0 0  0.48 0 0  0.5 0 0  0.52 0 0  0.54 0 0  0.5600000000000001 0 0  0.58 0 0  0.6 0 0  0.62 0 0  0.64 0 0  0.66 0 0  0.68 0 0  0.7 0 0  0.72 0 0  0.74 0 0  0.76 0 0  0.78 0 0  0.8 0 0  0.82 0 0  0.84 0 0  0.86 0 0  0.88 0 0  0.9 0 0  0.92 0 0  0.9399999999999999 0 0  0.96 0 0  0.98 0 0  1 0 0  1.02 0 0  1.04 0 0  1.06 0 0  1.08 0 0  1.1 0 0  1.12 0 0  1.14 0 0  1.16 0 0  1.18 0 0  1.2 0 0  1.22 0 0  1.24 0 0  1.26 0 0  1.28 0 0  1.3 0 0  1.32 0 0  1.34 0 0  1.36 0 0  1.38 0 0  1.4 0 0  1.42 0 0  1.44 0 0  1.46 0 0  1.48 0 0  1.5 0 0  1.52 0 0  1.54 0 0  1.56 0 0  1.58 0 0  1.6 0 0  1.62 0 0  1.64 0 0  1.66 0 0  1.68 0 0  1.7 0 0  1.72 0 0  1.74 0 0  1.76 0 0  1.78 0 0  1.8 0 0  1.82 0 0  1.84 0 0  1.86 0 0  1.88 0 0  1.9 0 0  1.92 0 0  1.94 0 0  1.96 0 0  1.98 0 0  2 0 0  0 0.02 0  0.02 0.02 0  0.04 0.02 0  0.06 0.02 0  0.08 0.02 0  0.1 0.02 0  0.12 0.02 0  0.14 0.02 0  0.16 0.02 0  0.18 0.02 0  0.2 0.02 0  0.22 0.02 0  0.24 0.02 0  0.26 0.02 0  0.28 0.02 0  0.3 0.02 0  0.32 0.02 0  0.34 0.02 0  0.36 0.02 0  0.38 0.02 0  0.4 0.02 0  0.42 0.02 0  0.44 0.02 0  0.46 0.02 0  0.48 0.02 0  0.5 0.02 0  0.52 0.02 0  0.54 0.02 0  0.5600000000000001 0.02 0  0.58 0.02 0  0.6 0.02 0  0.62 0.02 0  0.64 0.02 0  0.66 0.02 0  0.68 0.02 0  0.7 0.02 0  0.72 0.02 0  0.74 0.02 0  0.76 0.02 0  0.78 0.02 0  0.8 0.02 0  0.82 0.02 0  0.84 0.02 0  0.86 0.02 0  0.88 0.02 0  0.9 0.02 0  0.92 0.02 0  0.9399999999999999 0.02 0  0.96 0.02 0  0.98 0.02 0  1 0.02 0  1.02 0.02 0  1.04 0.02 0  1.06 0.02 0  1.08 0.02 0  1.1 0.02 0  1.12 0.02 0  1.14 0.02 0  1.16 0.02 0  1.18 0.02 0  1.2 0.02 0  1.22 0.02 0  1.24 0.02 0  1.26 0.02 0  1.28 0.02 0  1.3 0.02 0  1.32 0.02 0  1.34 0.02 0  1.36 0.02 0  1.38 0.02 0  1.4 0.02 0  1.42 0.02 0  1.44 0.02 0  1.46 0.02 0  1.48 0.02 0  1.5 0.02 0  1.52 0.02 0  1.54 0.02 0  1.56 0.02 0  1.58 0.02 0  1.6 0.02 0  1.62 0.02 0  1.64 0.02 0  1.66 0.02 0  1.68 0.02 0  1.7 0.02 0  1.72 0.02 0  1.74 0.02 0  1.76 0.02 0  1.78 0.02 0  1.8 0.02 0  1.82 0.02 0  1.84 0.02 0  1.86 0.02 0  1.88 0.02 0  1.9 0.02 0  1.92 0.02 0  1.94 0.02 0  1.96 0.02 0  1.98 0.02 0  2 0.02 0  0 0.04 0  0.02 0.04 0  0.04 0.04 0  0.06 0.04 0  0.08 0.04 0  0.1 0.04 0  0.12 0.04 0  0.14 0.04 0  0.16 0.04 0  0.18 0.04 0  0.2 0.04 0  0.22 0.04 0  0.24 0.04 0  0.26 0.04 0  0.28 0.04 0  0.3 0.04 0  0.32 0.04 0  0.34 0.04 0  0.36 0.04 0  0.38 0.04 0  0.4 0.04 0  0.42 0.04 0  0.44 0.04 0  0.46 0.04 0  0.48 0.04 0  0.5 0.04 0  0.52 0.04 0  0.54 0.04 0  0.5600000000000001 0.04 0  0.58 0.04 0  0.6 0.04 0  0.62 0.04 0  0.64 0.04 0  0.66 0.04 0  0.68 0.04 0  0.7 0.04 0  0.72 0.04 0  0.74 0.04 0  0.76 0.04 0  0.78 0.04 0  0.8 0.04 0  0.82 0.04 0  0.84 0.04 0  0.86 0.04 0  0.88 0.04 0  0.9 0.04 0  0.92 0.04 0  0.9399999999999999 0.04 0  0.96 0.04 0  0.98 0.04 0  1 0.04 0  1.02 0.04 0  1.04 0.04 0  1.06 0.04 0  1.08 0.04 0  1.1 0.04 0  1.12 0.04 0  1.14 0.04 0  1.16 0.04 0  1.18 0.04 0  1.2 0.04 0  1.22 0.04 0  1.24 0.04 0  1.26 0.04 0  1.28 0.04 0  1.3 0.04 0  1.32 0.04 0  1.34 0.04 0  1.36 0.04 0  1.38 0.04 0  1.4 0.04 0  1.42 0.04 0  1.44 0.04 0  1.46 0.04 0  1.48 0.04 0  1.5 0.04 0  1.52 0.04 0  1.54 0.04 0  1.56 0.04 0  1.58 0.04 0  1.6 0.04 0  1.62 0.04 0  1.64 0.04 0  1.66 0.04 0  1.68 0.04 0  1.7 0.04 0  1.72 0.04 0  1.74 0.04 0  1.76 0.04 0  1.78 0.04 0  1.8 0.04 0  1.82 0.04 0  1.84 0.04 0  1.86 0.04 0  1.88 0.04 0  1.9 0.04 0  1.92 0.04 0  1.94 0.04 0  1.96 0.04 0  1.98 0.04 0  2 0.04 0  0 0.06 0  0.02 0.06 0  0.04 0.06 0  0.06 0.06 0  0.08 0.06 0  0.1 0.06 0  0.12 0.06 0  0.14 0.06 0  0.16 0.06 0  0.18 0.06 0  0.2 0.06 0  0.22 0.06 0  0.24 0.06 0  0.26 0.06 0  0.28 0.06 0  0.3 0.06 0  0.32 0.06 0  0.34 0.06 0  0.36 0.06 0  0.38 0.06 0  0.4 0.06 0  0.42 0.06 0  0.44 0.06 0  0.46 0.06 0  0.48 0.06 0  0.5 0.06 0  0.52 0.06 0  0.54 0.06 0  0.5600000000000001 0.06 0  0.58 0.06 0  0.6 0.06 0  0.62 0.06 0  0.64 0.06 0  0.66 0.06 0  0.68 0.06 0  0.7 0.06 0  0.72 0.06 0  0.74 0.06 0  0.76 0.06 0  0.78 0.06 0  0.8 0.06 0  0.82 0.06 0  0.84 0.06 0  0.86 0.06 0  0.88 0.06 0  0.9 0.06 0  0.92 0.06 0  0.9399999999999999 0.06 0  0.96 0.06 0  0.98 0.06 0  1 0.06 0  1.02 0.06 0  1.04 0.06 0  1.06 0.06 0  1.08 0.06 0  1.1 0.06 0  1.12 0.06 0  1.14 0.06 0  1.16 0.06 0  1.18 0.06 0  1.2 0.06 0  1.22 0.06 0  1.24 0.06 0  1.26 0.06 0  1.28 0.06 0  1.3 0.06 0  1.32 0.06 0  1.34 0.06 0  1.36 0.06 0  1.38 0.06 0  1.4 0.06 0  1.42 0.06 0  1.44 0.06 0  1.46 0.06 0  1.48 0.06 0  1.5 0.06 0  1.52 0.06 0  1.54 0.06 0  1.56 0.06 0  1.58 0.06 0  1.6 0.06 0  1.62 0.06 0  1.64 0.06 0  1.66 0.06 0  1.68 0.06 0  1.7 0.06 0  1.72 0.06 0  1.74 0.06 0  1.76 0.06 0  1.78 0.06 0  1.8 0.06 0  1.82 0.06 0  1.84 0.06 0  1.86 0.06 0  1.88 0.06 0  1.9 0.06 0  1.92 0.06 0  1.94 0.06 0  1.96 0.06 0  1.98 0.06 0  2 0.06 0  0 0.08 0  0.02 0.08 0  0.04 0.08 0  0.06 0.08 0  0.08 0.08 0  0.1 0.08 0  0.12 0.08 0  0.14 0.08 0  0.16 0.08 0  0.18 0.08 0  0.2 0.08 0  0.22 0.08 0  0.24 0.08 0  0.26 0.08 0  0.28 0.08 0  0.3 0.08 0  0.32 0.08 0  0.34 0.08 0  0.36 0.08 0  0.38 0.08 0  0.4 0.08 0  0.42 0.08 0  0.44 0.08 0  0.46 0.08 0  0.48 0.08 0  0.5 0.08 0  0.52 0.08 0  0.54 0.08 0  0.5600000000000001 0.08 0  0.58 0.08 0  0.6 0.08 0  0.62 0.08 0  0.64 0.08 0  0.66 0.08 0  0.68 0.08 0  0.7 0.08 0  0.72 0.08 0  0.74 0.08 0  0.76 0.08 0  0.78 0.08 0  0.8 0.08 0  0.82 0.08 0  0.84 0.08 0  0.86 0.08 0  0.88 0.08 0  0.9 0.08 0  0.92 0.08 0  0.9399999999999999 0.08 0  0.96 0.08 0  0.98 0.08 0  1 0.08 0  1.02 0.08 0  1.04 0.08 0  1.06 0.08 0  1.08 0.08 0  1.1 0.08 0  1.12 0.08 0  1.14 0.08 0  1.16 0.08 0  1.18 0.08 0  1.2 0.08 0  1.22 0.08 0  1.24 0.08 0  1.26 0.08 0  1.28 0.08 0  1.3 0.08 0  1.32 0.08 0  1.34 0.08 0  1.36 0.08 0  1.38 0.08 0  1.4 0.08 0  1.42 0.08 0  1.44 0.08 0  1.46 0.08 0  1.48 0.08 0  1.5 0.08 0  1.52 0.08 0  1.54 0.08 0  1.56 0.08 0  1.58 0.08 0  1.6 0.08 0  1.62 0.08 0  1.64 0.08 0  1.66 0.08 0  1.68 0.08 0  1.7 0.08 0  1.72 0.08 0  1.74 0.08 0  1.76 0.08 0  1.78 0.08 0  1.8 0.08 0  1.82 0.08 0  1.84 0.08 0  1.86 0.08 0  1.88 0.08 0  1.9 0.08 0  1.92 0.08 0  1.94 0.08 0  1.96 0.08 0  1.98 0.08 0  2 0.08 0  0 0.1 0  0.02 0.1 0  0.04 0.1 0  0.06 0.1 0  0.08 0.1 0  0.1 0.1 0  0.12 0.1 0  0.14 0.1 0  0.16 0.1 0  0.18 0.1 0  0.2 0.1 0  0.22 0.1 0  0.24 0.1 0  0.26 0.1 0  0.28 0.1 0  0.3 0.1 0  0.32 0.1 0  0.34 0.1 0  0.36 0.1 0  0.38 0.1 0  0.4 0.1 0  0.42 0.1 0  0.44 0.1 0  0.46 0.1 0  0.48 0.1 0  0.5 0.1 0  0.52 0.1 0  0.54 0.1 0  0.5600000000000001 0.1 0  0.58 0.1 0  0.6 0.1 0  0.62 0.1 0  0.64 0.1 0  0.66 0.1 0  0.68 0.1 0  0.7 0.1 0  0.72 0.1 0  0.74 0.1 0  0.76 0.1 0  0.78 0.1 0  0.8 0.1 0  0.82 0.1 0  0.84 0.1 0  0.86 0.1 0  0.88 0.1 0  0.9 0.1 0  0.92 0.1 0  0.9399999999999999 0.1 0  0.96 0.1 0  0.98 0.1 0  1 0.1 0  1.02 0.1 0  1.04 0.1 0  1.06 0.1 0  1.08 0.1 0  1.1 0.1 0  1.12 0.1 0  1.14 0.1 0  1.16 0.1 0  1.18 0.1 0  1.2 0.1 0  1.22 0.1 0  1.24 0.1 0  1.26 0.1 0  1.28 0.1 0  1.3 0.1 0  1.32 0.1 0  1.34 0.1 0  1.36 0.1 0  1.38 0.1 0  1.4 0.1 0  1.42 0.1 0  1.44 0.1 0  1.46 0.1 0  1.48 0.1 0  1.5 0.1 0  1.52 0.1 0  1.54 0.1 0  1.56 0.1 0  1.58 0.1 0  1.6 0.1 0  1.62 0.1 0  1.64 0.1 0  1.66 0.1 0  1.68 0.1 0  1.7 0.1 0  1.72 0.1 0  1.74 0.1 0  1.76 0.1 0  1.78 0.1 0  1.8 0.1 0  1.82 0.1 0  1.84 0.1 0  1.86 0.1 0  1.88 0.1 0  1.9 0.1 0  1.92 0.1 0  1.94 0.1 0  1.96 0.1 0  1.98 0.1 0  2 0.1 0  0 0.12 0  0.02 0.12 0  0.04 0.12 0  0.06 0.12 0  0.08 0.12 0  0.1 0.12 0  0.12 0.12 0  0.14 0.12 0  0.16 0.12 0  0.18 0.12 0  0.2 0.12 0  0.22 0.12 0  0.24 0.12 0  0.26 0.12 0  0.28 0.12 0  0.3 0.12 0  0.32 0.12 0  0.34 0.12 0  0.36 0.12 0  0.38 0.12 0  0.4 0.12 0  0.42 0.12 0  0.44 0.12 0  0.46 0.12 0  0.48 0.12 0  0.5 0.12 0  0.52 0.12 0  0.54 0.12 0  0.5600000000000001 0.12 0  0.58 0.12 0  0.6 0.12 0  0.62 0.12 0  0.64 0.12 0  0.66 0.12 0  0.68 0.12 0  0.7 0.12 0  0.72 0.12 0  0.74 0.12 0  0.76 0.12 0  0.78 0.12 0  0.8 0.12 0  0.82 0.12 0  0.84 0.12 0  0.86 0.12 0  0.88 0.12 0  0.9 0.12 0  0.92 0.12 0  0.9399999999999999 0.12 0  0.96 0.12 0  0.98 0.12 0  1 0.12 0  1.02 0.12 0  1.04 0.12 0  1.06 0.12 0  1.08 0.12 0  1.1 0.12 0  1.12 0.12 0  1.14 0.12 0  1.16 0.12 0  1.18 0.12 0  1.2 0.12 0  1.22 0.12 0  1.24 0.12 0  1.26 0.12 0  1.28 0.12 0  1.3 0.12 0  1.32 0.12 0  1.34 0.12 0  1.36 0.12 0  1.38 0.12 0  1.4 0.12 0  1.42 0.12 0  1.44 0.12 0  1.46 0.12 0  1.48 0.12 0  1.5 0.12 0  1.52 0.12 0  1.54 0.12 0  1.56 0.12 0  1.58 0.12 0  1.6 0.12 0  1.62 0.12 0  1.64 0.12 0  1.66 0.12 0  1.68 0.12 0  1.7 0.12 0  1.72 0.12 0  1.74 0.12 0  1.76 0.12 0  1.78 0.12 0  1.8 0.12 0  1.82 0.12 0  1.84 0.12 0  1.86 0.12 0  1.88 0.12 0  1.9 0.12 0  1.92 0.12 0  1.94 0.12 0  1.96 0.12 0  1.98 0.12 0  2 0.12 0  0 0.14 0  0.02 0.14 0  0.04 0.14 0  0.06 0.14 0  0.08 0.14 0  0.1 0.14 0  0.12 0.14 0  0.14 0.14 0  0.16 0.14 0  0.18 0.14 0  0.2 0.14 0  0.22 0.14 0  0.24 0.14 0  0.26 0.14 0  0.28 0.14 0  0.3 0.14 0  0.32 0.14 0  0.34 0.14 0  0.36 0.14 0  0.38 0.14 0  0.4 0.14 0  0.42 0.14 0  0.44 0.14 0  0.46 0.14 0  0.48 0.14 0  0.5 0.14 0  0.52 0.14 0  0.54 0.14 0  0.5600000000000001 0.14 0  0.58 0.14 0  0.6 0.14 0  0.62 0.14 0  0.64 0.14 0  0.66 0.14 0  0.68 0.14 0  0.7 0.14 0  0.72 0.14 0  0.74 0.14 0  0.76 0.14 0  0.78 0.14 0  0.8 0.14 0  0.82 0.14 0  0.84 0.14 0  0.86 0.14 0  0.88 0.14 0  0.9 0.14 0  0.92 0.14 0  0.9399999999999999 0.14 0  0.96 0.14 0  0.98 0.14 0  1 0.14 0  1.02 0.14 0  1.04 0.14 0  1.06 0.14 0  1.08 0.14 0  1.1 0.14 0  1.12 0.14 0  1.14 0.14 0  1.16 0.14 0  1.18 0.14 0  1.2 0.14 0  1.22 0.14 0  1.24 0.14 0  1.26 0.14 0  1.28 0.14 0  1.3 0.14 0  1.32 0.14 0  1.34 0.14 0  1.36 0.14 0  1.38 0.14 0  1.4 0.14 0  1.42 0.14 0  1.44 0.14 0  1.46 0.14 0  1.48 0.14 0  1
[...]
<PointData  Scalars="sols[i]"> 
<DataArray  type="Float64"  Name="sols[i]"  format="ascii">3.8813024614710673e-01  3.5629338508662473e-01  3.5629342944894127e-01  3.5629350985202890e-01  3.5629364038303790e-01  3.5629383939364240e-01  3.5629412883158318e-01  3.5629453277130080e-01  3.5629507580678305e-01  3.5629578177331062e-01  3.5629667301184392e-01  3.5629777017428366e-01  3.5629909240999019e-01  3.5630065764570223e-01  3.5630248257869529e-01  3.5630458195653847e-01  3.5630696672914092e-01  3.5630964074312155e-01  3.5631259583791780e-01  3.5631580549821551e-01  3.5631921762990409e-01  3.5632274738049508e-01  3.5632627122813532e-01  3.5632962597778262e-01  3.5633261265205346e-01  3.5633500787017897e-01  3.5633658469831442e-01  3.5633714177971210e-01  3.5633653892734263e-01  3.5633473557690903e-01  3.5633182722351553e-01  3.5632807439622971e-01  3.5632391905433008e-01  3.5631998454470204e-01  3.5631705724737694e-01  3.5631605046323983e-01  3.5631795421777684e-01  3.5632377748617233e-01  3.5633448032058196e-01  3.5635091387544648e-01  3.5637376859240855e-01  3.5640353975414291e-01  3.5644051133510302e-01  3.5648475751286701e-01  3.5653615938012589e-01  3.5659442541284425e-01  3.5665910120661470e-01  3.5672955680235474e-01  3.5680495087008030e-01  3.5688419498106083e-01  3.5696595992501534e-01  3.5704875723119595e-01  3.5713109045639957e-01  3.5721161114519595e-01  3.5728916192831844e-01  3.5736261658065821e-01  3.5743065802285928e-01  3.5749178428909667e-01  3.5754463608545750e-01  3.5758841379906325e-01  3.5762301542284991e-01  3.5764905556239163e-01  3.5766804417664916e-01  3.5768230042132648e-01  3.5769468505858087e-01  3.5770897810708180e-01  3.5773060886230884e-01  3.5776648462905752e-01  3.5782394621867430e-01  3.5791047645126622e-01  3.5803482560203187e-01  3.5820829016412425e-01  3.5844438251069444e-01  3.5875578746879910e-01  3.5914887718968980e-01  3.5961556699577668e-01  3.6012158001523320e-01  3.6059517392522927e-01  3.6093067874356144e-01  3.6102525297306315e-01  3.6083672302175024e-01  3.6041438994462283e-01  3.5987562740166323e-01  3.5933916899125690e-01  3.5887205877469969e-01  3.5848595725007776e-01  3.5816209518405584e-01  3.5787629601274029e-01  3.5761247312895467e-01  3.5736552616136846e-01  3.5713818281723558e-01  3.5693617864237731e-01  3.5676446891937358e-01  3.5662531972929779e-01  3.5651798497062914e-01  3.5643931032424830e-01  3.5638469702413500e-01  3.5634908540870008e-01  3.5632781641242423e-01  3.5631734775071866e-01  4.3791837460196892e-01  3.5629338449493203e-01  3.1444509638239621e-01  3.1444518588138304e-01  3.1444534782970784e-01  3.1444560316919301e-01  3.1444597742147889e-01  3.1444650046441602e-01  3.1444720527743109e-01  3.1444812606272016e-01  3.1444929647103742e-01  3.1445074839554532e-01  3.1445251145748648e-01  3.1445461301508154e-01  3.1445707829465580e-01  3.1445993008045953e-01  3.1446318732302209e-01  3.1446686206310498e-01  3.1447095424562538e-01  3.1447544433644964e-01  3.1448028416737062e-01  3.1448538706636864e-01  3.1449061903811210e-01  3.1449579340148887e-01  3.1450067219726857e-01  3.1450497716444853e-01  3.1450841222241116e-01  3.1451069872309184e-01  3.1451162185794607e-01  3.1451108458903504e-01  3.1450916328430312e-01  3.1450615788372815e-01  3.1450262904275700e-01  3.1449941552183525e-01  3.1449762704024720e-01  3.1449861053444655e-01  3.1450389076798047e-01  3.1451508921745247e-01  3.1453382821961545e-01  3.1456162736586263e-01  3.1459981587136487e-01  3.1464945300533947e-01  3.1471125706843339e-01  3.1478559170790199e-01  3.1487247987690992e-01  3.1497163971551562e-01  3.1508252133013231e-01  3.1520431194377052e-01  3.1533587979759492e-01  3.1547565100698238e-01  3.1562147744474700e-01  3.1577060535278850e-01  3.1591983015748692e-01  3.1606583399529598e-01  3.1620554669573059e-01  3.1633622645297071e-01  3.1645498996842858e-01  3.1655814692827122e-01  3.1664116073079446e-01  3.1669947372654433e-01  3.1672952197326476e-01  3.1672882373489597e-01  3.1669570095000310e-01  3.1662993681571405e-01  3.1653292284021978e-01  3.1640659395605913e-01  3.1625392427268806e-01  3.1608150304771049e-01  3.1590050775288903e-01  3.1572440096884807e-01  3.1556710600717258e-01  3.1544438859094981e-01  3.1537605995300227e-01  3.1538552530087777e-01  3.1549701475101583e-01  3.1573265952426494e-01  3.1610819226123099e-01  3.1662156511226752e-01  3.1723238297708123e-01  3.1784484220908232e-01  3.1833052004847256e-01  3.1859669847618899e-01  3.1863948662754016e-01  3.1853303416615747e-01  3.1835411863719942e-01  3.1813810751268262e-01  3.1788883611256391e-01  3.1760035335390069e-01  3.1727047459512298e-01  3.1690602807982571e-01  3.1652266735927798e-01  3.1614107173749562e-01  3.1578182436423008e-01  3.1546124163063327e-01  3.1518927482512055e-01  3.1496941478330986e-01  3.1479991960851145e-01  3.1467560548527618e-01  3.1458963706512255e-01  3.1453503079971462e-01  3.1450586193106167e-01  3.5631695692082321e-01  3.5629342687597820e-01  3.1444518241663466e-01  3.1444531327022840e-01  3.1444553710974049e-01  3.1444586716022704e-01  3.1444631590503647e-01  3.1444689529296133e-01  3.1444761762997836e-01  3.1444849597598790e-01  3.1444954402296843e-01  3.1445077574759894e-01  3.1445220503927163e-01  3.1445384530864506e-01  3.1445570889632229e-01  3.1445780597342521e-01  3.1446014259073007e-01  3.1446271761778588e-01  3.1446551853274968e-01  3.1446851638605600e-01  3.1447166074795629e-01  3.1447487593271906e-01  3.1447806023497521e-01  3.1448109017539860e-01  3.1448383164013388e-01  3.1448615876757113e-01  3.1448798011812773e-01  3.1448927048751524e-01  3.1449010429108570e-01  3.1449068648291534e-01  3.1449137658388948e-01  3.1449270226757525e-01  3.1449536036738568e-01  3.1450020482742808e-01  3.1450822255421318e-01  3.1452049883575017e-01  3.1453817385250638e-01  3.1456239152590743e-01  3.1459424287521043e-01  3.1463470680336908e-01  3.1468459410087857e-01  3.1474451010926840e-01  3.1481480831082803e-01  3.1489558724191608e-01  3.1498671759670988e-01  3.1508788009904976e-01  3.1519859205545636e-01  3.1531818340715223e-01  3.1544568475912577e-01  3.1557961801385981e-01  3.1571778674086048e-01  3.1585723203030941e-01  3.1599445996423070e-01  3.1612593469639544e-01  3.1624860875498090e-01  3.1636001942463415e-01  3.1645747243582062e-01  3.1653699804820834e-01  3.1659345100878938e-01  3.1662195090739204e-01  3.1661945423095500e-01  3.1658434787717687e-01  3.1651545540496173e-01  3.1641354167798341e-01  3.1628250873360891e-01  3.1612764286677492e-01  3.1595476098429859e-01  3.1577293081080843e-01  3.1559709209046666e-01  3.1544735169755150e-01  3.1534790520580308e-01  3.1532831881454182e-01  3.1542473363644863e-01  3.1567589695269976e-01  3.1611975172877615e-01  3.1679693861836078e-01  3.1774334076301258e-01  3.1893982533423498e-01  3.2020628284982650e-01  3.2112469787145204e-01  3.2125799961208851e-01  3.2058502194169830e-01  3.1954905574295500e-01  3.1864716404249982e-01  3.1805525128252010e-01  3.1768743315642661e-01  3.1741909037551624e-01  3.1717441719178596e-01  3.1692000148610477e-01  3.1664570269819253e-01  3.1635453896998322e-01  3.1605700911688878e-01  3.1576647422498655e-01  3.1549549092462198e-01  3.1525353158287495e-01  3.1504616863378049e-01  3.1487541026036758e-01  3.1474068037296216e-01  3.1463995129254135e-01  3.1457074074854163e-01  3.1453104871745347e-01  3.5632564176803294e-01  3.5629350269272581e-01  3.1444533608213382e-01  3.1444552843648382e-01  3.1444583667781140e-01  3.1444626178447416e-01  3.1444680125194446e-01  3.1444744823601756e-01  3.1444819356946457e-01  3.1444902827560628e-01  3.1444994541940269e-01  3.1445094107972987e-01  3.1445201453758714e-01  3.1445316778201116e-01  3.1445440435136957e-01  3.1445572746497541e-01  3.1445713742509201e-01  3.1445862841719147e-01  3.1446018510807211e-01  3.1446177983429824e-01  3.1446337165508309e-01  3.1446490886754780e-01  3.1446633676462055e-01  3.1446761219199598e-01  3.1446872545590482e-01  3.1446972823223607e-01  3.1447076387149192e-01  3.1447209520019248e-01  3.1447412338180947e-01  3.1447739278214859e-01  3.1448257911516159e-01  3.1449046136560049e-01  3.1450188154704528e-01  3.1451769913635869e-01  3.1453874796207987e-01  3.1456580151968705e-01  3.1459954841650845e-01  3.1464057522276045e-01  3.1468935230493711e-01  3.1474621914917650e-01  3.1481136699727341e-01  3.1488483179159721e-01  3.1496648261876492e-01  3.1505603311847236e-01  3.1515309246220241e-01  3.1525721983510585e-01  3.1536795441137405e-01  3.1548476060247371e-01  3.1560682678614238e-01  3.1573268975354157e-01  3.1585986606995320e-01  3.1598476784756890e-01  3.1610303644769133e-01  3.1621031580841347e-01  3.1630314517186098e-01  3.1637917948349559e-01  3.1643576111623223e-01  3.1646820564236799e-01  3.1647013349500758e-01  3.1643587627308617e-01  3.1636350708140248e-01  3.1625444545885656e-01  3.1611111858705532e-01  3.1593922019102966e-01  3.1575211867470537e-01  3.1557140732151390e-01  3.1542517692631650e-01  3.1534961306269887e-01  3.1539209305579652e-01  3.1561691261340385e-01  3.1612189899858184e-01  3.1706351062055688e-01  3.1867856893068169e-01  3.2123676329274886e-01  3.2485711709467413e-01  3.2930671335386025e-01  3.3406381304883992e-01  3.3859909417541961e-01  3.4224628461502166e-01  3.4417341505120475e-01  3.4362410096440488e-01  3.3908845344574123e-01  3.3005945737255621e-01  3.2169048658548904e-01  3.1848192696012789e-01  3.1740632536770164e-01  3.1700101994116414e-01  3.1678662955005310e-01  3.1661462326461931e-01  3.1643708630600120e-01  3.1623973744848538e-01  3.1602355405193749e-01  3.1579683713853074e-01  3.1557028619999739e-01  3.1535397354685629e-01  3.1515585933756063e-01  3.1498146794544030e-01  3.1483428469238450e-01  3.1471647057412155e-01  3.1462970127237039e-01  3.1457629369822643e-01  3.5634272180950843e-01  3.5629362415885996e-01  3.1444557542436469e-01  3.1444584265609599e-01  3.1444624699437695e-01  3.1444677163223944e-01  3.1444739772028379e-01  3.1444810116101318e-01  3.1444885431879688e-01  3.1444962983874908e-01  3.1445040429697491e-01  3.1445116069141121e-01  3.1445188951963399e-01  3.1445258847947732e-01  3.1445326091106091e-01  3.1445391315044063e-01  3.1445455109098702e-01  3.1445517648796512e-01  3.1445578387478862e-01  3.1445635939071243e-01  3.1445688333166827e-01  3.1445733840762363e-01  3.1445772568301750e-01  3.1445808945947024e-01  3.1445855032293635e-01  3.1445934247091678e-01  3.1446084833766430e-01  3.1446362184851728e-01  3.1446839176061481e-01  3.1447603918926825e-01  3.1448754828357767e-01  3.1450393497262957e-01  3.1452616450302817e-01  3.1455507265464794e-01  3.1459130594924911e-01  3.1463529106582244e-01  3.1468723374520219e-01  3.1474713786013453e-01  3.1481483153190748e-01  3.1488998956549308e-01  3.1497214592895834e-01  3.1506070412689136e-01  3.1515495320727127e-01  3.1525409407650890e-01  3.1535731718489485e-01  3.1546389566230393e-01  3.1557324009511306e-01  3.1568481791576558e-01  3.1579782464789791e-01  3.1591052529851171e-01  3.1601963102726638e-01  3.1612018319902097e-01  3.1620602402223741e-01  3.1627093888955932e-01  3.1631013700340710e-01  3.1632082929790578e-01  3.1629987302716217e-01  3.1624148154519027e-01  3.1613883584582103e-01  3.1598787489368463e-01  3.1579298846221948e-01  3.1557044962225173e-01  3.1534914270068393e-01  3.1517631816370228e-01  3.1513301039653568e-01  3.1536385881686485e-01  3.1613353344253775e-01  3.1793148461612686e-01  3.2140601608239855e-01  3.2641824567126654e-01  3.3146914112677084e-01  3.3606281020944700e-01  3.4161826539887657e-01  3.4500398162288393e-01  3.4762335304665737e-01  3.6348362072591156e-01  3.8541039906115349e-01  4.1245224157710658e-01  4.3675072034972245e-01  4.4652706931378344e-01  4.3546827347465589e-01  3.9927500334775767e-01  3.5527844525304281e-01  3.4127474492511367e-01  3.2367415249175741e-01  3.1776627674829394e-01  3.1673552010471318e-01  3.1649259166440352e-01  3.1639925676915848e-01  3.1631520967873067e-01  3.1620111597969536e-01  3.1605042903319813e-01  3.1587060209116097e-01  3.1567403253709164e-01  3.1547333332868177e-01  3.1527923801950480e-01  3.1510006156624093e-01  3.1494201080624235e-01  3.1480993576377403e-01  3.1470837831855475e-01  3.1464293035598323e-01  3.5636971250229560e-01  3.5629380734521132e-01  3.1444592343166100e-01  3.1444626904265771e-01  3.1444677010273198e-01  3.1444738699983932e-01  3.1444808257630458e-01  3.1444881660757190e-01  3.1444954636397610e-01  3.1445023088643914e-01  3.1445083602103718e-01  3.1445133839991884e-01  3.1445172756575690e-01  3.1445200601744566e-01  3.1445218726140811e-01  3.1445229218572845e-01  3.1445234436881631e-01  3.1445236530763365e-01  3.1445237095151707e-01  3.1445237139779658e-01  3.1445237621383548e-01  3.1445240791533052e-01  3.1445252607827245e-01  3.1445286326880989e-01  3.1445367052505041e-01  3.1445536527338469e-01  3.1445857052217696e-01  3.1446413294477299e-01  3.1447310898964304e-01  3.1448671263267691e-01  3.1450622553317908e-01  3.1453287946431457e-01  3.1456772931942056e-01  3.1461154114604828e-01  3.1466471962616321e-01  3.1472728939927047e-01  3.1479892591071296e-01  3.1487901499289234e-01  3.1496671608545967e-01  3.1506101087706112e-01  3.1516073097725378e-01  3.1526456792538698e-01  3.1537109109856365e-01  3.1547878711677119e-01  3.1558615522212941e-01  3.1569185368371505e-01  3.1579480526749054e-01  3.1589410205588642e-01  3.1598850638299780e-01  3.1607532167311159e-01  3.1614941028636312e-01  3.1620320937164337e-01  3.1622748483640556e-01  3.1621286047890390e-01  3.1615205847530670e-01  3.1604162641686134e-01  3.1587889923196089e-01  3.1566075306291946e-01  3.1539222517279031e-01  3.1509796704291210e-01  3.1483918252437454e-01  3.1474589415681897e-01  3.1509306568096324e-01  3.1650117921330057e-01  3.2022503536562036e-01  3.2651213464925599e-01  3.3202920159359295e-01  3.3781833146936280e-01  3.4568499379001227e-01  3.4636964532844156e-01  3.6110628969850478e-01  3.8350207913792311e-01  4.1456402937719949e-01  4.4818637344591311e-01  4.8413622484280544e-01  5.5211432084328416e-01  7.6840156857344888e-01  8.1916071298532855e-01  8.5930734043596779e-01  8.7653859116341692e-01  8.4478893500474161e-01  8.1562999448070939e-01  4.8610069622230201e-01  3.8189668539578037e-01  3.4120595442212243e-01  3.2045858736128985e-01  3.1666336461736644e-01  3.1625248596216482e-01  3.1623391555377101e-01  3.1624509656743877e-01  3.1620821465134846e-01  3.1611055409886302e-01  3.1596323826047423e-01  3.1578433483612284e-01  3.1559124739679584e-01  3.1539808911157879e-01  3.1521544030572307e-01  3.1505112209732228e-01  3.1491141897912706e-01  3.1480249318960013e-01  3.1473138515479193e-01  3.5640811574553610e-01  3.5629407212314990e-01  3.1444640934769102e-01  3.1444682514068706e-01  3.1444741174186719e-01  3.1444810361361220e-01  3.1444884290531960e-01  3.1444957326760675e-01  3.1445023937970423e-01  3.1445079116240582e-01  3.1445118974029823e-01  3.1445141271486315e-01  3.1445145730565860e-01  3.1445134070520625e-01  3.1445109754975448e-01  3.1445077490267820e-01  3.1445042570434362e-01  3.1445010219651770e-01  3.1444985128187136e-01  3.1444971424897417e-01  3.1444973411561095e-01  3.1444997399709240e-01  3.1445055004543365e-01  3.1445168036026327e-01  3.1445374560212364e-01  3.1445734962135874e-01  3.1446336340779507e-01  3.1447293649836250e-01  3.1448746297575436e-01  3.1450849488035665e-01  3.1453760564496241e-01  3.1457621925601825e-01  3.1462543267834303e-01  3.1468586870707288e-01  3.1475759619746463e-01  3.1484013638706554e-01  3.1493254027491085e-01  3.1503349618903548e-01  3.1514142588036359e-01  3.1525454396736918e-01  3.1537087776533057e-01  3.1548825582707213e-01  3.1560429451274224e-01  3.1571641641208370e-01  3.1582194416497655e-01  3.1591828971802188e-01  3.1600312106556233e-01  3.1607427062583066e-01  3.1612904119688268e-01  3.1616232567492997e-01  3.1616520077102922e-01  3.1612564133130749e-01  3.1603037218668534e-01  3.1586747621316069e-01  3.1562995940680316e-01  3.1532209788438803e-01  3.1496277324616723e-01  3.1459981326043912e-01  3.1436124454330344e-01  3.1456813645557369e-01  3.1606387945685205e-01  3.2072684887933239e-01  3.2770240698852776e-01  3.3395898811205621e-01  3.4221465796339362e-01  3.4528666096297111e-01  3.5544649087143210e-01  3.7940396171761148e-01  4.1536667486969403e-01  4.5925418131588769e-01  6.8283846458452535e-01  7.9999981036778700e-01  8.4766075815182496e-01  8.7499022824726791e-01  8.9287845913840136e-01  9.1812874604604300e-01  9.4229874054846363e-01  9.6150369956345638e-01  9.7054502331051451e-01  9.7345551185529000e-01  9.7165341708709707e-01  9.6009237006720494e-01  8.9570495268417760e-01  7.1517722591100719e-01  4.6266785084863699e-01  3.8699425837453050e-01  3.4256790024360290e-01  3.1599332869863217e-01  3.1606229347223214e-01  3.1617968254738377e-01  3.1622292943037145e-01  3.1617357346129443e-01  3.1605049417399800e-01  3.1588150856529673e-01  3.1569129759946990e-01  3.1549828637505029e-01  3.1531524741783812e-01  3.1515106505169721e-01  3.1501275078641433e-01  3.1490712857712921e-01  3.1484039823589904e-01  3.5645872185319527e-01  3.5629444185632581e-01  3.1444706959373386e-01  3.1444753616477078e-01  3.1444818581945144e-01  3.1444892662403306e-01  3.1444967794037670e-01  3.1445036654129782e-01  3.1445092604554964e-01  3.1445130100642199e-01  3.1445145347498166e-01  3.1445136930667217e-01  3.1445106215042951e-01  3.1445057390729814e-01  3.1444997124112695e-01  3.1444933857153035e-01  3.1444876892847756e-01  3.1444835480920946e-01  3.1444818161233862e-01  3.1444832653290927e-01  3.1444886702101110e-01  3.1444990383986304e-01  3.1445160433149022e-01  3.1445426779285385e-01  3.1445840561258281e-01  3.1446481734417747e-01  3.1447463856286750e-01  3.1448934281518803e-01  3.1451068332499643e-01  3.1454056499778421e-01  3.1458085065305158e-01  3.1463312427737467e-01  3.1469845078033643e-01  3.1477718815402400e-01  3.1486890839426168e-01  3.1497245039933275e-01  3.1508606685958135e-01  3.1520758910011343e-01  3.1533454646243037e-01  3.1546421237185979e-01  3.1559358632662055e-01  3.1571932300516037e-01  3.1583765154019194e-01  3.1594431796711847e-01  3.1603462311689190e-01  3.1610359044109743e-01  3.1614614392948304e-01  3.1615707153765960e-01  3.1613025006181766e-01  3.1605573742509890e-01  3.1591843617886489e-01  3.1570151335454305e-01  3.1539280251586799e-01  3.1499555348566688e-01  3.1454478733385882e-01  3.1414634766179728e-01  3.1406661795071178e-01  3.1504506336345772e-01  3.1911973211400263e-01  3.2638123155394122e-01  3.3275853204861761e-01  3.4196907093812640e-01  3.4566676999447998e-01  3.5440294765585817e-01  3.8232734858599010e-01  4.2619192185962057e-01  7.0012228518556652e-01  8.1567625863420756e-01  8.7199648197852830e-01  8.8792675083282546e-01  9.1598922034501351e-01  9.3974730134655959e-01  9.6024814984952134e-01  9.7131249510711448e-01  9.7670111891589162e-01  9.8167784046072504e-01  9.8620299059637928e-01  9.8847062099903493e-01  9.8976313309603137e-01  9.9017897893675622e-01  9.8925403558807279e-01  9.8617913148012071e-01  9.6231742234850315e-01  7.6041776502954761e-01  6.1858513799909198e-01  5.5573566724360113e-01  5.2349668252002290e-01  3.6056079445877087e-01  3.1585776541064137e-01  3.1609157550591144e-01  3.1622039598121776e-01  3.1621913349623004e-01  3.1611641211791669e-01  3.1595308104891540e-01  3.1576338855216607e-01  3.1557111129068371e-01  3.1539147988095800e-01  3.1523437080207134e-01  3.1510728609526589e-01  3.1501702209591570e-01  3.1496650728850573e-01  3.5652109033023094e-01  3.5629494361980174e-01  3.1444794902557310e-01  3.1444843799988215e-01  3.1444911904135381e-01  3.1444987609992220e-01  3.1445060457242457e-01  3.1445121352713551e-01  3.1445162649491371e-01  3.1445178574494953e-01  3.1445165932571417e-01  3.1445124819039327e-01  3.1445059080905058e-01  3.1444976341053488e-01  3.1444887499634716e-01  3.1444805758612965e-01  3.1444745368140842e-01  3.1444720388092945e-01  3.1444743785440449e-01  3.1444827151930888e-01  3.1444981511938097e-01  3.1445220081489972e-01  3.14455638960