<?xml version="1.0"?>
<VTKFile type="UnstructuredGrid"  version="0.1"  >
<UnstructuredGrid>
<Piece  NumberOfPoints="5151" NumberOfCells="10000">
<Points>
<DataArray  type="Float64"  NumberOfComponents="3"  format="ascii">0 0 0  0.02 0 0  0.04 0 0  0.06 0 0  0.08 0 0  0.1 0 0  0.12 0 0  0.14 0 0  0.16 0 0  0.18 0 0  0.2 0 0  0.22 0 0  0.24 0 0  0.26 0 0  0.28 0 0  0.3 0 0  0.32 0 0  0.34 0 0  0.36 0 0  0.38 0 0  0.4 0 0  0.42 0 0  0.44 0 0  0.46 0 0  0.48 0 0  0.5 0 0  0.52 0 0  0.54 0 0  0.5600000000000001 0 0  0.58 0 0  0.6 0 0  0.62 0 0  0.64 0 0  0.66 0 0  0.68 0 0  0.7 0 0  0.72 0 0  0.74 0 0  0.76 0 0  0.78 0 0  0.8 0 0  0.82 0 0  0.84 0 0  0.86 0 0  0.88 0 0  0.9 0 0  0.92 0 0  0.9399999999999999 0 0  0.96 0 0  0.98 0 0  1 0 0  1.02 0 0  1.04 0 0  1.06 0 0  1.08 0 0  1.1 0 0  1.12 0 0  1.14 0 0  1.16 0 0  1.18 0 0  1.2 0 0  1.22 0 0  1.24 0 0  1.26 0 0  1.28 0 0  1.3 0 0  1.32 0 0  1.34 0 0  1.36 0 0  1.38 0 0  1.4 0 0  1.42 0 0  1.44 0 0  1.46 0 0  1.48 0 0  1.5 0 0  1.52 0 0  1.54 0 0  1.56 0 0  1.58 0 0  1.6 0 0  1.62 0 0  1.64 0 0  1.66 0 0  1.68 0 0  1.7 0 0  1.72 0 0  1.74 0 0  1.76 0 0  1.78 0 0  1.8 0 0  1.82 0 0  1.84 0 0  1.86 0 0  1.88 0 0  1.9 0 0  1.92 0 0  1.94 0 0  1.96 0 0  1.98 0 0  2 0 0  0 0.02 0  0.02 0.02 0  0.04 0.02 0  0.06 0.02 0  0.08 0.02 0  0.1 0.02 0  0.12 0.02 0  0.14 0.02 0  0.16 0.02 0  0.18 0.02 0  0.2 0.02 0  0.22 0.02 0  0.24 0.02 0  0.26 0.02 0  0.28 0.02 0  0.3 0.02 0  0.32 0.02 0  0.34 0.02 0  0.36 0.02 0  0.38 0.02 0  0.4 0.02 0  0.42 0.02 0  0.44 0.02 0  0.46 0.02 0  0.48 0.02 0  0.5 0.02 0  0.52 0.02 0  0.54 0.02 0  0.5600000000000001 0.02 0  0.58 0.02 0  0.6 0.02 0  0.62 0.02 0  0.64 0.02 0  0.66 0.02 0  0.68 0.02 0  0.7 0.02 0  0.72 0.02 0  0.74 0.02 0  0.76 0.02 0  0.78 0.02 0  0.8 0.02 0  0.82 0.02 0  0.84 0.02 0  0.86 0.02 0  0.88 0.02 0  0.9 0.02 0  0.92 0.02 0  0.9399999999999999 0.02 0  0.96 0.02 0  0.98 0.02 0  1 0.02 0  1.02 0.02 0  1.04 0.02 0  1.06 0.02 0  1.08 0.02 0  1.1 0.02 0  1.12 0.02 0  1.14 0.02 0  1.16 0.02 0  1.18 0.02 0  1.2 0.02 0  1.22 0.02 0  1.24 0.02 0  1.26 0.02 0  1.28 0.02 0  1.3 0.02 0  1.32 0.02 0  1.34 0.02 0  1.36 0.02 0  1.38 0.02 0  1.4 0.02 0  1.42 0.02 0  1.44 0.02 0  1.46 0.02 0  1.48 0.02 0  1.5 0.02 0  1.52 0.02 0  1.54 0.02 0  1.56 0.02 0  1.58 0.02 0  1.6 0.02 0  1.62 0.02 0  1.64 0.02 0  1.66 0.02 0  1.68 0.02 0  1.7 0.02 0  1.72 0.02 0  1.74 0.02 0  1.76 0.02 0  1.78 0.02 0  1.8 0.02 0  1.82 0.02 0  1.84 0.02 0  1.86 0.02 0  1.88 0.02 0  1.9 0.02 0  1.92 0.02 0  1.94 0.02 0  1.96 0.02 0  1.98 0.02 0  2 0.02 0  0 0.04 0  0.02 0.04 0  0.04 0.04 0  0.06 0.04 0  0.08 0.04 0  0.1 0.04 0  0.12 0.04 0  0.14 0.04 0  0.16 0.04 0  0.18 0.04 0  0.2 0.04 0  0.22 0.04 0  0.24 0.04 0  0.26 0.04 0  0.28 0.04 0  0.3 0.04 0  0.32 0.04 0  0.34 0.04 0  0.36 0.04 0  0.38 0.04 0  0.4 0.04 0  0.42 0.04 0  0.44 0.04 0  0.46 0.04 0  0.48 0.04 0  0.5 0.04 0  0.52 0.04 0  0.54 0.04 0  0.5600000000000001 0.04 0  0.58 0.04 0  0.6 0.04 0  0.62 0.04 0  0.64 0.04 0  0.66 0.04 0  0.68 0.04 0  0.7 0.04 0  0.72 0.04 0  0.74 0.04 0  0.76 0.04 0  0.78 0.04 0  0.8 0.04 0  0.82 0.04 0  0.84 0.04 0  0.86 0.04 0  0.88 0.04 0  0.9 0.04 0  0.92 0.04 0  0.9399999999999999 0.04 0  0.96 0.04 0  0.98 0.04 0  1 0.04 0  1.02 0.04 0  1.04 0.04 0  1.06 0.04 0  1.08 0.04 0  1.1 0.04 0  1.12 0.04 0  1.14 0.04 0  1.16 0.04 0  1.18 0.04 0  1.2 0.04 0  1.22 0.04 0  1.24 0.04 0  1.26 0.04 0  1.28 0.04 0  1.3 0.04 0  1.32 0.04 0  1.34 0.04 0  1.36 0.04 0  1.38 0.04 0  1.4 0.04 0  1.42 0.04 0  1.44 0.04 0  1.46 0.04 0  1.48 0.04 0  1.5 0.04 0  1.52 0.04 0  1.54 0.04 0  1.56 0.04 0  1.58 0.04 0  1.6 0.04 0  1.62 0.04 0  1.64 0.04 0  1.66 0.04 0  1.68 0.04 0  1.7 0.04 0  1.72 0.04 0  1.74 0.04 0  1.76 0.04 0  1.78 0.04 0  1.8 0.04 0  1.82 0.04 0  1.84 0.04 0  1.86 0.04 0  1.88 0.04 0  1.9 0.04 0  1.92 0.04 0  1.94 0.04 0  1.96 0.04 0  1.98 0.04 0  2 0.04 0  0 0.06 0  0.02 0.06 0  0.04 0.06 0  0.06 0.06 0  0.08 0.06 0  0.1 0.06 0  0.12 0.06 0  0.14 0.06 0  0.16 0.06 0  0.18 0.06 0  0.2 0.06 0  0.22 0.06 0  0.24 0.06 0  0.26 0.06 0  0.28 0.06 0  0.3 0.06 0  0.32 0.06 0  0.34 0.06 0  0.36 0.06 0  0.38 0.06 0  0.4 0.06 0  0.42 0.06 0  0.44 0.06 0  0.46 0.06 0  0.48 0.06 0  0.5 0.06 0  0.52 0.06 0  0.54 0.06 0  0.5600000000000001 0.06 0  0.58 0.06 0  0.6 0.06 0  0.62 0.06 0  0.64 0.06 0  0.66 0.06 0  0.68 0.06 0  0.7 0.06 0  0.72 0.06 0  0.74 0.06 0  0.76 0.06 0  0.78 0.06 0  0.8 0.06 0  0.82 0.06 0  0.84 0.06 0  0.86 0.06 0  0.88 0.06 0  0.9 0.06 0  0.92 0.06 0  0.9399999999999999 0.06 0  0.96 0.06 0  0.98 0.06 0  1 0.06 0  1.02 0.06 0  1.04 0.06 0  1.06 0.06 0  1.08 0.06 0  1.1 0.06 0  1.12 0.06 0  1.14 0.06 0  1.16 0.06 0  1.18 0.06 0  1.2 0.06 0  1.22 0.06 0  1.24 0.06 0  1.26 0.06 0  1.28 0.06 0  1.3 0.06 0  1.32 0.06 0  1.34 0.06 0  1.36 0.06 0  1.38 0.06 0  1.4 0.06 0  1.42 0.06 0  1.44 0.06 0  1.46 0.06 0  1.48 0.06 0  1.5 0.06 0  1.52 0.06 0  1.54 0.06 0  1.56 0.06 0  1.58 0.06 0  1.6 0.06 0  1.62 0.06 0  1.64 0.06 0  1.66 0.06 0  1.68 0.06 0  1.7 0.06 0  1.72 0.06 0  1.74 0.06 0  1.76 0.06 0  1.78 0.06 0  1.8 0.06 0  1.82 0.06 0  1.84 0.06 0  1.86 0.06 0  1.88 0.06 0  1.9 0.06 0  1.92 0.06 0  1.94 0.06 0  1.96 0.06 0  1.98 0.06 0  2 0.06 0  0 0.08 0  0.02 0.08 0  0.04 0.08 0  0.06 0.08 0  0.08 0.08 0  0.1 0.08 0  0.12 0.08 0  0.14 0.08 0  0.16 0.08 0  0.18 0.08 0  0.2 0.08 0  0.22 0.08 0  0.24 0.08 0  0.26 0.08 0  0.28 0.08 0  0.3 0.08 0  0.32 0.08 0  0.34 0.08 0  0.36 0.08 0  0.38 0.08 0  0.4 0.08 0  0.42 0.08 0  0.44 0.08 0  0.46 0.08 0  0.48 0.08 0  0.5 0.08 0  0.52 0.08 0  0.54 0.08 0  0.5600000000000001 0.08 0  0.58 0.08 0  0.6 0.08 0  0.62 0.08 0  0.64 0.08 0  0.66 0.08 0  0.68 0.08 0  0.7 0.08 0  0.72 0.08 0  0.74 0.08 0  0.76 0.08 0  0.78 0.08 0  0.8 0.08 0  0.82 0.08 0  0.84 0.08 0  0.86 0.08 0  0.88 0.08 0  0.9 0.08 0  0.92 0.08 0  0.9399999999999999 0.08 0  0.96 0.08 0  0.98 0.08 0  1 0.08 0  1.02 0.08 0  1.04 0.08 0  1.06 0.08 0  1.08 0.08 0  1.1 0.08 0  1.12 0.08 0  1.14 0.08 0  1.16 0.08 0  1.18 0.08 0  1.2 0.08 0  1.22 0.08 0  1.24 0.08 0  1.26 0.08 0  1.28 0.08 0  1.3 0.08 0  1.32 0.08 0  1.34 0.08 0  1.36 0.08 0  1.38 0.08 0  1.4 0.08 0  1.42 0.08 0  1.44 0.08 0  1.46 0.08 0  1.48 0.08 0  1.5 0.08 0  1.52 0.08 0  1.54 0.08 0  1.56 0.08 0  1.58 0.08 0  1.6 0.08 0  1.62 0.08 0  1.64 0.08 0  1.66 0.08 0  1.68 0.08 0  1.7 0.08 0  1.72 0.08 0  1.74 0.08 0  1.76 0.08 0  1.78 0.08 0  1.8 0.08 0  1.82 0.08 0  1.84 0.08 0  1.86 0.08 0  1.88 0.08 0  1.9 0.08 0  1.92 0.08 0  1.94 0.08 0  1.96 0.08 0  1.98 0.08 0  2 0.08 0  0 0.1 0  0.02 0.1 0  0.04 0.1 0  0.06 0.1 0  0.08 0.1 0  0.1 0.1 0  0.12 0.1 0  0.14 0.1 0  0.16 0.1 0  0.18 0.1 0  0.2 0.1 0  0.22 0.1 0  0.24 0.1 0  0.26 0.1 0  0.28 0.1 0  0.3 0.1 0  0.32 0.1 0  0.34 0.1 0  0.36 0.1 0  0.38 0.1 0  0.4 0.1 0  0.42 0.1 0  0.44 0.1 0  0.46 0.1 0  0.48 0.1 0  0.5 0.1 0  0.52 0.1 0  0.54 0.1 0  0.5600000000000001 0.1 0  0.58 0.1 0  0.6 0.1 0  0.62 0.1 0  0.64 0.1 0  0.66 0.1 0  0.68 0.1 0  0.7 0.1 0  0.72 0.1 0  0.74 0.1 0  0.76 0.1 0  0.78 0.1 0  0.8 0.1 0  0.82 0.1 0  0.84 0.1 0  0.86 0.1 0  0.88 0.1 0  0.9 0.1 0  0.92 0.1 0  0.9399999999999999 0.1 0  0.96 0.1 0  0.98 0.1 0  1 0.1 0  1.02 0.1 0  1.04 0.1 0  1.06 0.1 0  1.08 0.1 0  1.1 0.1 0  1.12 0.1 0  1.14 0.1 0  1.16 0.1 0  1.18 0.1 0  1.2 0.1 0  1.22 0.1 0  1.24 0.1 0  1.26 0.1 0  1.28 0.1 0  1.3 0.1 0  1.32 0.1 0  1.34 0.1 0  1.36 0.1 0  1.38 0.1 0  1.4 0.1 0  1.42 0.1 0  1.44 0.1 0  1.46 0.1 0  1.48 0.1 0  1.5 0.1 0  1.52 0.1 0  1.54 0.1 0  1.56 0.1 0  1.58 0.1 0  1.6 0.1 0  1.62 0.1 0  1.64 0.1 0  1.66 0.1 0  1.68 0.1 0  1.7 0.1 0  1.72 0.1 0  1.74 0.1 0  1.76 0.1 0  1.78 0.1 0  1.8 0.1 0  1.82 0.1 0  1.84 0.1 0  1.86 0.1 0  1.88 0.1 0  1.9 0.1 0  1.92 0.1 0  1.94 0.1 0  1.96 0.1 0  1.98 0.1 0  2 0.1 0  0 0.12 0  0.02 0.12 0  0.04 0.12 0  0.06 0.12 0  0.08 0.12 0  0.1 0.12 0  0.12 0.12 0  0.14 0.12 0  0.16 0.12 0  0.18 0.12 0  0.2 0.12 0  0.22 0.12 0  0.24 0.12 0  0.26 0.12 0  0.28 0.12 0  0.3 0.12 0  0.32 0.12 0  0.34 0.12 0  0.36 0.12 0  0.38 0.12 0  0.4 0.12 0  0.42 0.12 0  0.44 0.12 0  0.46 0.12 0  0.48 0.12 0  0.5 0.12 0  0.52 0.12 0  0.54 0.12 0  0.5600000000000001 0.12 0  0.58 0.12 0  0.6 0.12 0  0.62 0.12 0  0.64 0.12 0  0.66 0.12 0  0.68 0.12 0  0.7 0.12 0  0.72 0.12 0  0.74 0.12 0  0.76 0.12 0  0.78 0.12 0  0.8 0.12 0  0.82 0.12 0  0.84 0.12 0  0.86 0.12 0  0.88 0.12 0  0.9 0.12 0  0.92 0.12 0  0.9399999999999999 0.12 0  0.96 0.12 0  0.98 0.12 0  1 0.12 0  1.02 0.12 0  1.04 0.12 0  1.06 0.12 0  1.08 0.12 0  1.1 0.12 0  1.12 0.12 0  1.14 0.12 0  1.16 0.12 0  1.18 0.12 0  1.2 0.12 0  1.22 0.12 0  1.24 0.12 0  1.26 0.12 0  1.28 0.12 0  1.3 0.12 0  1.32 0.12 0  1.34 0.12 0  1.36 0.12 0  1.38 0.12 0  1.4 0.12 0  1.42 0.12 0  1.44 0.12 0  1.46 0.12 0  1.48 0.12 0  1.5 0.12 0  1.52 0.12 0  1.54 0.12 0  1.56 0.12 0  1.58 0.12 0  1.6 0.12 0  1.62 0.12 0  1.64 0.12 0  1.66 0.12 0  1.68 0.12 0  1.7 0.12 0  1.72 0.12 0  1.74 0.12 0  1.76 0.12 0  1.78 0.12 0  1.8 0.12 0  1.82 0.12 0  1.84 0.12 0  1.86 0.12 0  1.88 0.12 0  1.9 0.12 0  1.92 0.12 0  1.94 0.12 0  1.96 0.12 0  1.98 0.12 0  2 0.12 0  0 0.14 0  0.02 0.14 0  0.04 0.14 0  0.06 0.14 0  0.08 0.14 0  0.1 0.14 0  0.12 0.14 0  0.14 0.14 0  0.16 0.14 0  0.18 0.14 0  0.2 0.14 0  0.22 0.14 0  0.24 0.14 0  0.26 0.14 0  0.28 0.14 0  0.3 0.14 0  0.32 0.14 0  0.34 0.14 0  0.36 0.14 0  0.38 0.14 0  0.4 0.14 0  0.42 0.14 0  0.44 0.14 0  0.46 0.14 0  0.48 0.14 0  0.5 0.14 0  0.52 0.14 0  0.54 0.14 0  0.5600000000000001 0.14 0  0.58 0.14 0  0.6 0.14 0  0.62 0.14 0  0.64 0.14 0  0.66 0.14 0  0.68 0.14 0  0.7 0.14 0  0.72 0.14 0  0.74 0.14 0  0.76 0.14 0  0.78 0.14 0  0.8 0.14 0  0.82 0.14 0  0.84 0.14 0  0.86 0.14 0  0.88 0.14 0  0.9 0.14 0  0.92 0.14 0  0.9399999999999999 0.14 0  0.96 0.14 0  0.98 0.14 0  1 0.14 0  1.02 0.14 0  1.04 0.14 0  1.06 0.14 0  1.08 0.14 0  1.1 0.14 0  1.12 0.14 0  1.14 0.14 0  1.16 0.14 0  1.18 0.14 0  1.2 0.14 0  1.22 0.14 0  1.24 0.14 0  1.26 0.14 0  1.28 0.14 0  1.3 0.14 0  1.32 0.14 0  1.34 0.14 0  1.36 0.14 0  1.38 0.14 0  1.4 0.14 0  1.42 0.14 0  1.44 0.14 0  1.46 0.14 0  1.48 0.14 0  1
[...]
<PointData  Scalars="sols[i]"> 
<DataArray  type="Float64"  Name="sols[i]"  format="ascii">1.2035943557192791e-02  8.0563187232424328e-03  8.0563187233028653e-03  8.0563187234148296e-03  8.0563187236016680e-03  8.0563187238927511e-03  8.0563187243204073e-03  8.0563187249165780e-03  8.0563187257100231e-03  8.0563187267244998e-03  8.0563187279774819e-03  8.0563187294790378e-03  8.0563187312306852e-03  8.0563187332239397e-03  8.0563187354384287e-03  8.0563187378396572e-03  8.0563187403767493e-03  8.0563187429802154e-03  8.0563187455605020e-03  8.0563187480084605e-03  8.0563187501989306e-03  8.0563187520000454e-03  8.0563187532924508e-03  8.0563187540045964e-03  8.0563187541755621e-03  8.0563187540650220e-03  8.0563187543443732e-03  8.0563187564298977e-03  8.0563187630642193e-03  8.0563187793282667e-03  8.0563188143873178e-03  8.0563188844498691e-03  8.0563190176456568e-03  8.0563192617502215e-03  8.0563196957436044e-03  8.0563204457649116e-03  8.0563217046142714e-03  8.0563237511228694e-03  8.0563269619341165e-03  8.0563318066405702e-03  8.0563388254499130e-03  8.0563486160157381e-03  8.0563618948321924e-03  8.0563796783670143e-03  8.0564033996330733e-03  8.0564344027152391e-03  8.0564725339869539e-03  8.0565148499349322e-03  8.0565559452460845e-03  8.0565902822156768e-03  8.0566154203159882e-03  8.0566314664017712e-03  8.0566368778252212e-03  8.0566291079039714e-03  8.0566074836791613e-03  8.0565741972327583e-03  8.0565335779490960e-03  8.0564903655163164e-03  8.0564488627850820e-03  8.0564124196797170e-03  8.0563829352786748e-03  8.0563607733304433e-03  8.0563451572778673e-03  8.0563347502860348e-03  8.0563281375877743e-03  8.0563241030782353e-03  8.0563217254420935e-03  8.0563203653584749e-03  8.0563196072359119e-03  8.0563191942312033e-03  8.0563189738550936e-03  8.0563188584735247e-03  8.0563187990682263e-03  8.0563187688531598e-03  8.0563187535012907e-03  8.0563187455133904e-03  8.0563187410592745e-03  8.0563187382429822e-03  8.0563187361664124e-03  8.0563187344317826e-03  8.0563187328817221e-03  8.0563187314665712e-03  8.0563187301786153e-03  8.0563187290220578e-03  8.0563187280000836e-03  8.0563187271109147e-03  8.0563187263478497e-03  8.0563187257006418e-03  8.0563187251571945e-03  8.0563187247050250e-03  8.0563187243322884e-03  8.0563187240284013e-03  8.0563187237842476e-03  8.0563187235921131e-03  8.0563187234450676e-03  8.0563187233368781e-03  8.0563187232612632e-03  8.0563187232117143e-03  8.0563187231819672e-03  8.0563187231671215e-03  2.3804588761414981e-02  8.0563187232411057e-03  4.0441624014940884e-03  4.0441624015239968e-03  4.0441624015783648e-03  4.0441624016659249e-03  4.0441624017979122e-03  4.0441624019870370e-03  4.0441624022462047e-03  4.0441624025873233e-03  4.0441624030203831e-03  4.0441624035527975e-03  4.0441624041888157e-03  4.0441624049289606e-03  4.0441624057694124e-03  4.0441624067012478e-03  4.0441624077095705e-03  4.0441624087726915e-03  4.0441624098614144e-03  4.0441624109387149e-03  4.0441624119603855e-03  4.0441624128772129e-03  4.0441624136398884e-03  4.0441624142086748e-03  4.0441624145709874e-03  4.0441624147726438e-03  4.0441624149732463e-03  4.0441624155443173e-03  4.0441624172444486e-03  4.0441624215333564e-03  4.0441624311342989e-03  4.0441624510337039e-03  4.0441624902288215e-03  4.0441625647053107e-03  4.0441627023248602e-03  4.0441629504393171e-03  4.0441633869043037e-03  4.0441641343338776e-03  4.0441653753875810e-03  4.0441673634560044e-03  4.0441704199617769e-03  4.0441749126271034e-03  4.0441812299584004e-03  4.0441898116361863e-03  4.0442013164327297e-03  4.0442168348523580e-03  4.0442376165793657e-03  4.0442638824887377e-03  4.0442935901694914e-03  4.0443225725070283e-03  4.0443464269401593e-03  4.0443637247585635e-03  4.0443755592563498e-03  4.0443807213336180e-03  4.0443766256010915e-03  4.0443623405741636e-03  4.0443393699212075e-03  4.0443110032708889e-03  4.0442806953651829e-03  4.0442515596843375e-03  4.0442260648920472e-03  4.0442055990003323e-03  4.0441903832305684e-03  4.0441797965648897e-03  4.0441728341730054e-03  4.0441684675725283e-03  4.0441658360679039e-03  4.0441643025567551e-03  4.0441634339070925e-03  4.0441629536348504e-03  4.0441626936016115e-03  4.0441625553918103e-03  4.0441624831407362e-03  4.0441624459219361e-03  4.0441624269706633e-03  4.0441624173654057e-03  4.0441624124415683e-03  4.0441624098060663e-03  4.0441624082591995e-03  4.0441624072180262e-03  4.0441624064118976e-03  4.0441624057236825e-03  4.0441624051082920e-03  4.0441624045517250e-03  4.0441624040514820e-03  4.0441624036077232e-03  4.0441624032197193e-03  4.0441624028850747e-03  4.0441624025999148e-03  4.0441624023594535e-03  4.0441624021585769e-03  4.0441624019923027e-03  4.0441624018560671e-03  4.0441624017458627e-03  4.0441624016582557e-03  4.0441624015901999e-03  4.0441624015389735e-03  4.0441624015020283e-03  4.0441624014767742e-03  4.0441624014607245e-03  4.0441624014518696e-03  8.0563187231665560e-03  8.0563187232970453e-03  4.0441624015219169e-03  4.0441624015557934e-03  4.0441624016130540e-03  4.0441624016983556e-03  4.0441624018172709e-03  4.0441624019758732e-03  4.0441624021803737e-03  4.0441624024365897e-03  4.0441624027493803e-03  4.0441624031220934e-03  4.0441624035560319e-03  4.0441624040499641e-03  4.0441624045996797e-03  4.0441624051975409e-03  4.0441624058320828e-03  4.0441624064878308e-03  4.0441624071454038e-03  4.0441624077821609e-03  4.0441624083739853e-03  4.0441624088987816e-03  4.0441624093429298e-03  4.0441624097130313e-03  4.0441624100567989e-03  4.0441624105006244e-03  4.0441624113184312e-03  4.0441624130594742e-03  4.0441624167885711e-03  4.0441624245402480e-03  4.0441624401753055e-03  4.0441624709813585e-03  4.0441625306120738e-03  4.0441626443487103e-03  4.0441628581912616e-03  4.0441632538208861e-03  4.0441639715977380e-03  4.0441652424744777e-03  4.0441674252605416e-03  4.0441710361658872e-03  4.0441767442250505e-03  4.0441853024268488e-03  4.0441974297729848e-03  4.0442138134237551e-03  4.0442356081685504e-03  4.0442654102944694e-03  4.0443069213823828e-03  4.0443613631946573e-03  4.0444236248734040e-03  4.0444828926091162e-03  4.0445280245328822e-03  4.0445588608855878e-03  4.0445834855714641e-03  4.0445973540033844e-03  4.0445907082072782e-03  4.0445605294998398e-03  4.0445110054107202e-03  4.0444508321837245e-03  4.0443876079369577e-03  4.0443279056375670e-03  4.0442770025214949e-03  4.0442375254414690e-03  4.0442093292639616e-03  4.0441905298192349e-03  4.0441786845376998e-03  4.0441715575923135e-03  4.0441674278204540e-03  4.0441651070515870e-03  4.0441638350764723e-03  4.0441631519959487e-03  4.0441627912081888e-03  4.0441626032046941e-03  4.0441625062980708e-03  4.0441624567658886e-03  4.0441624315856817e-03  4.0441624187934292e-03  4.0441624122403604e-03  4.0441624087986091e-03  4.0441624068943312e-03  4.0441624057461281e-03  4.0441624049728396e-03  4.0441624043928495e-03  4.0441624039221332e-03  4.0441624035228614e-03  4.0441624031781623e-03  4.0441624028799495e-03  4.0441624026232772e-03  4.0441624024041261e-03  4.0441624022186061e-03  4.0441624020628331e-03  4.0441624019330203e-03  4.0441624018256244e-03  4.0441624017374484e-03  4.0441624016656890e-03  4.0441624016079583e-03  4.0441624015621494e-03  4.0441624015265226e-03  4.0441624014996361e-03  4.0441624014801846e-03  4.0441624014670007e-03  4.0441624014591051e-03  8.0563187231787771e-03  8.0563187233980461e-03  4.0441624015710156e-03  4.0441624016074595e-03  4.0441624016659856e-03  4.0441624017482965e-03  4.0441624018556438e-03  4.0441624019887726e-03  4.0441624021483463e-03  4.0441624023350511e-03  4.0441624025493840e-03  4.0441624027913112e-03  4.0441624030598134e-03  4.0441624033525133e-03  4.0441624036654236e-03  4.0441624039927824e-03  4.0441624043271070e-03  4.0441624046595919e-03  4.0441624049809667e-03  4.0441624052830819e-03  4.0441624055618181e-03  4.0441624058220249e-03  4.0441624060859865e-03  4.0441624064083814e-03  4.0441624069032138e-03  4.0441624077939232e-03  4.0441624095094528e-03  4.0441624128718474e-03  4.0441624194668437e-03  4.0441624323781285e-03  4.0441624576351152e-03  4.0441625070362338e-03  4.0441626035592430e-03  4.0441627914824677e-03  4.0441631547176119e-03  4.0441638486009828e-03  4.0441651517767376e-03  4.0441675435783303e-03  4.0441718033896457e-03  4.0441791034412722e-03  4.0441910190317440e-03  4.0442093308163656e-03  4.0442355557975020e-03  4.0442706113983790e-03  4.0443161537957644e-03  4.0443785909449331e-03  4.0444694962508947e-03  4.0445932087970551e-03  4.0447334898651485e-03  4.0448600762316364e-03  4.0449438681801498e-03  4.0449961620170928e-03  4.0450610363048098e-03  4.0451168511890052e-03  4.0451174781741964e-03  4.0450511126175221e-03  4.0449332646874140e-03  4.0447917394137323e-03  4.0446447597273357e-03  4.0445077822242412e-03  4.0443939092368771e-03  4.0443087204747753e-03  4.0442503767872612e-03  4.0442131569692246e-03  4.0441907135215747e-03  4.0441777705353850e-03  4.0441705656022349e-03  4.0441666656033329e-03  4.0441646006798594e-03  4.0441635260487704e-03  4.0441629740719824e-03  4.0441626932235806e-03  4.0441625511846314e-03  4.0441624795232922e-03  4.0441624433026511e-03  4.0441624248556025e-03  4.0441624153089439e-03  4.0441624102271929e-03  4.0441624074002000e-03  4.0441624057287236e-03  4.0441624046660771e-03  4.0441624039393581e-03  4.0441624034107358e-03  4.0441624030086443e-03  4.0441624026940652e-03  4.0441624024440855e-03  4.0441624022438689e-03  4.0441624020829811e-03  4.0441624019535690e-03  4.0441624018494830e-03  4.0441624017658016e-03  4.0441624016985499e-03  4.0441624016445080e-03  4.0441624016010619e-03  4.0441624015661298e-03  4.0441624015380220e-03  4.0441624015155331e-03  4.0441624014979603e-03  4.0441624014849326e-03  4.0441624014762520e-03  4.0441624014712838e-03  8.0563187232021074e-03  8.0563187235607892e-03  4.0441624016470026e-03  4.0441624016805174e-03  4.0441624017357042e-03  4.0441624018124761e-03  4.0441624019090239e-03  4.0441624020223750e-03  4.0441624021493906e-03  4.0441624022872803e-03  4.0441624024336363e-03  4.0441624025862582e-03  4.0441624027428048e-03  4.0441624029005589e-03  4.0441624030563388e-03  4.0441624032066179e-03  4.0441624033479198e-03  4.0441624034777248e-03  4.0441624035959627e-03  4.0441624037074004e-03  4.0441624038256470e-03  4.0441624039796514e-03  4.0441624042247054e-03  4.0441624046621385e-03  4.0441624054759606e-03  4.0441624070039406e-03  4.0441624098799707e-03  4.0441624153238920e-03  4.0441624257365394e-03  4.0441624459214001e-03  4.0441624855773002e-03  4.0441625643285540e-03  4.0441627217154110e-03  4.0441630366217542e-03  4.0441636640207897e-03  4.0441649019461613e-03  4.0441673074401311e-03  4.0441718826853728e-03  4.0441803391875284e-03  4.0441953911417956e-03  4.0442208856428467e-03  4.0442613327966595e-03  4.0443202735082626e-03  4.0443979763387077e-03  4.0444940231806501e-03  4.0446222152699905e-03  4.0448161775711918e-03  4.0450827783536942e-03  4.0453533749782297e-03  6.0574296406199811e-03  8.0622239659363243e-03  8.0623762964523414e-03  8.0630532077330015e-03  6.0587133562995128e-03  4.0462660326468251e-03  4.0461715946895627e-03  4.0459018037551225e-03  4.0455677805552167e-03  4.0452198227952096e-03  4.0448978617732062e-03  4.0446376956338684e-03  4.0444510388763996e-03  4.0443290759932205e-03  4.0442548731367267e-03  4.0442121148343679e-03  4.0441884792495513e-03  4.0441758253486632e-03  4.0441692156152516e-03  4.0441658275460228e-03  4.0441641152612418e-03  4.0441632585810029e-03  4.0441628326629521e-03  4.0441626214063253e-03  4.0441625163808812e-03  4.0441624637254639e-03  4.0441624368746983e-03  4.0441624227866655e-03  4.0441624150743382e-03  4.0441624106101358e-03  4.0441624078572727e-03  4.0441624060530189e-03  4.0441624048103610e-03  4.0441624039246988e-03  4.0441624032806350e-03  4.0441624028076557e-03  4.0441624024591168e-03  4.0441624022021262e-03  4.0441624020127066e-03  4.0441624018731082e-03  4.0441624017701601e-03  4.0441624016941151e-03  4.0441624016377799e-03  4.0441624015958352e-03  4.0441624015643456e-03  4.0441624015404298e-03  4.0441624015219793e-03  4.0441624015076869e-03  4.0441624014970565e-03  4.0441624014902417e-03  4.0441624014876873e-03  4.0441624014883647e-03  8.0563187232377473e-03  8.0563187238029566e-03  4.0441624017559163e-03  4.0441624017758873e-03  4.0441624018192615e-03  4.0441624018851680e-03  4.0441624019690097e-03  4.0441624020648229e-03  4.0441624021668003e-03  4.0441624022699183e-03  4.0441624023700544e-03  4.0441624024638552e-03  4.0441624025485011e-03  4.0441624026215728e-03  4.0441624026811380e-03  4.0441624027260986e-03  4.0441624027568995e-03  4.0441624027768453e-03  4.0441624027941396e-03  4.0441624028250316e-03  4.0441624028989057e-03  4.0441624030665719e-03  4.0441624034145557e-03  4.0441624040914708e-03  4.0441624053590237e-03  4.0441624076949616e-03  4.0441624120066992e-03  4.0441624200805593e-03  4.0441624355314577e-03  4.0441624658077661e-03  4.0441625263979708e-03  4.0441626495722940e-03  4.0441629023090899e-03  4.0441634224294681e-03  4.0441644898231302e-03  4.0441666627324870e-03  4.0441710280542326e-03  4.0441796343881516e-03  4.0441961732102603e-03  4.0442268755394254e-03  4.0442812331609483e-03  4.0443712662310925e-03  4.0445066081732182e-03  4.0446830344869856e-03  4.0448814124020554e-03  4.0451152928976976e-03  4.0454641845536826e-03  6.0582828417228597e-03  8.0648631217822373e-03  1.2055848081281420e-02  5.0999901301922024e-01  5.0949343606483366e-01  5.1073229022741562e-01  5.1440576733615273e-01  1.2071082670194933e-02  6.0638154201599417e-03  4.0480148761690201e-03  4.0472981603797897e-03  4.0464823705493461e-03  4.0457204334385195e-03  4.0451260524625478e-03  4.0447213354685690e-03  4.0444711564551587e-03  4.0443267959690849e-03  4.0442475414595837e-03  4.0442055917750365e-03  4.0441839814987562e-03  4.0441730714028965e-03  4.0441676448201846e-03  4.0441649743243819e-03  4.0441636692942753e-03  4.0441630336973781e-03  4.0441627238862882e-03  4.0441625718875343e-03  4.0441624961899611e-03  4.0441624574435817e-03  4.0441624367214164e-03  4.0441624249411938e-03  4.0441624177457985e-03  4.0441624130345671e-03  4.0441624097771094e-03  4.0441624074468510e-03  4.0441624057537418e-03  4.0441624045204402e-03  4.0441624036266490e-03  4.0441624029845264e-03  4.0441624025275725e-03  4.0441624022052626e-03  4.0441624019796306e-03  4.0441624018226503e-03  4.0441624017139976e-03  4.0441624016391417e-03  4.0441624015877860e-03  4.0441624015526692e-03  4.0441624015287230e-03  4.0441624015124435e-03  4.0441624015017186e-03  4.0441624014957538e-03  4.0441624014949176e-03  4.0441624015001834e-03  4.0441624015096324e-03  8.0563187232855476e-03  8.0563187241383897e-03  4.0441624019026054e-03  4.0441624018934495e-03  4.0441624019125549e-03  4.0441624019594349e-03  4.0441624020261351e-03  4.0441624021035922e-03  4.0441624021837954e-03  4.0441624022602499e-03  4.0441624023279336e-03  4.0441624023831151e-03  4.0441624024231317e-03  4.0441624024463579e-03  4.0441624024524434e-03  4.0441624024428503e-03  4.0441624024218333e-03  4.0441624023981240e-03  4.0441624023874597e-03  4.0441624024164548e-03  4.0441624025288692e-03  4.0441624027960123e-03  4.0441624033352398e-03  4.0441624043453545e-03  4.0441624061776198e-03  4.0441624094838813e-03  4.0441624155327380e-03  4.0441624268913318e-03  4.0441624489006567e-03  4.0441624928627094e-03  4.0441625828910206e-03  4.0441627705240053e-03  4.0441631655842320e-03  4.0441640005065109e-03  4.0441657622151093e-03  4.0441694565932287e-03  4.0441771231050690e-03  4.0441927935653509e-03  4.0442241614058530e-03  4.0442851604350323e-03  4.0443990000603811e-03  4.0445987695260869e-03  4.0449156865791855e-03  4.0453304615010559e-03  4.0457299492483133e-03  4.0460265267924494e-03  6.0593508859656565e-03  1.2061100835533975e-02  5.1282837990212804e-01  5.1029690706975717e-01  5.0895650183944452e-01  5.0737383458684382e-01  5.0822453055113981e-01  5.1103502560755720e-01  5.2119119446199857e-01  5.3234396698813835e-01  8.0869079471545292e-03  4.0510127820255568e-03  4.0492208012053209e-03  4.0474139008911158e-03  4.0460667211617172e-03  4.0452092549496076e-03  4.0447131200003154e-03  4.0444432761351807e-03  4.0443025362943644e-03  4.0442312433194381e-03  4.0441958664811217e-03  4.0441785666989992e-03  4.0441701928540614e-03  4.0441661668703614e-03  4.0441642384353915e-03  4.0441633151322483e-03  4.0441628713022487e-03  4.0441626555785216e-03  4.0441625483072178e-03  4.0441624927478239e-03  4.0441624620987313e-03  4.0441624437552691e-03  4.0441624318087741e-03  4.0441624234780300e-03  4.0441624174192645e-03  4.0441624129358162e-03  4.0441624096182590e-03  4.0441624071878707e-03  4.0441624054332196e-03  4.0441624041862552e-03  4.0441624033131680e-03  4.0441624027097254e-03  4.0441624022970833e-03  4.0441624020173478e-03  4.0441624018291086e-03  4.0441624017033759e-03  4.0441624016201456e-03  4.0441624015657438e-03  4.0441624015309201e-03  4.0441624015094720e-03  4.0441624014976325e-03  4.0441624014937710e-03  4.0441624014981876e-03  4.0441624015123395e-03  4.0441624015331813e-03  8.0563187233422609e-03  8.0563187245725060e-03  4.0441624020890301e-03  4.0441624020317625e-03  4.0441624020112589e-03  4.0441624020289210e-03  4.0441624020724262e-03  4.0441624021289703e-03  4.0441624021883057e-03  4.0441624022428246e-03  4.0441624022871225e-03  4.0441624023176206e-03  4.0441624023322912e-03  4.0441624023306831e-03  4.0441624023142640e-03  4.0441624022871389e-03  4.0441624022572661e-03  4.0441624022384539e-03  4.0441624022533674e-03  4.0441624023381320e-03  4.0441624025498966e-03  4.0441624029797559e-03  4.0441624037765283e-03  4.0441624051938060e-03  4.0441624076873774e-03  4.0441624121238182e-03  4.0441624202357026e-03  4.0441624356231509e-03  4.0441624659630498e-03  4.0441625278763247e-03  4.0441626576124190e-03  4.0441629343786843e-03  4.0441635309257781e-03  4.0441648222718646e-03  4.0441676167857418e-03  4.0441736402271134e-03  4.0441865299057174e-03  4.0442138205095185e-03  4.0442707472604818e-03  4.0443870355780656e-03  4.0446174528541200e-03  4.0450526864372598e-03  4.0458040858351845e-03  4.0468227460614672e-03  4.0476086926405450e-03  6.0623493146737444e-03  1.2061367942797774e-02  5.1252228402511413e-01  5.1251556998804138e-01  4.9999996849004436e-01  4.9999996849540451e-01  4.9999996851781747e-01  4.9999996851814305e-01  4.9999996848720429e-01  4.9999996845519190e-01  5.2224654636722889e-01  5.4496081433451571e-01  8.1111375406314294e-03  4.0549559138957029e-03  4.0507685823091060e-03  4.0477785240131212e-03  4.0460315438766471e-03  4.0450958064181149e-03  4.0446183668119765e-03  4.0443819820319788e-03  4.0442671955113561e-03  4.0442121597303368e-03  4.0441859888838928e-03  4.0441736075765410e-03  4.0441677659284140e-03  4.0441650110311280e-03  4.0441637086102381e-03  4.0441630882286804e-03  4.0441627876551768e-03  4.0441626369973165e-03  4.0441625568564763e-03  4.0441625103567018e-03  4.0441624805357644e-03  4.0441624596706718e-03  4.0441624442392812e-03  4.0441624325627751e-03  4.0441624237315408e-03  4.0441624171431764e-03  4.0441624123241371e-03  4.0441624088738666e-03  4.0441624064537704e-03  4.0441624047868720e-03  4.0441624036560266e-03  4.0441624028978961e-03  4.0441624023940977e-03  4.0441624020614948e-03  4.0441624018431547e-03  4.0441624017008111e-03  4.0441624016090572e-03  4.0441624015511903e-03  4.0441624015163363e-03  4.0441624014978623e-03  4.0441624014925731e-03  4.0441624015002987e-03  4.0441624015228545e-03  4.0441624015560692e-03  8.0563187234011790e-03  8.0563187250992756e-03  4.0441624023129716e-03  4.0441624021877341e-03  4.0441624021113638e-03  4.0441624020889867e-03  4.0441624021027864e-03  4.0441624021353593e-03  4.0441624021739179e-03  4.0441624022098215e-03  4.0441624022375562e-03  4.0441624022540309e-03  4.0441624022581855e-03  4.0441624022510047e-03  4.0441624022359525e-03  4.0441624022198221e-03  4.0441624022141635e-03  4.0441624022375822e-03  4.0441624023191940e-03  4.0441624025040288e-03  4.0441624028620280e-03  4.0441624035039373e-03  4.04416240461