<?xml version="1.0"?>
<VTKFile type="UnstructuredGrid"  version="0.1"  >
<UnstructuredGrid>
<Piece  NumberOfPoints="5151" NumberOfCells="10000">
<Points>
<DataArray  type="Float64"  NumberOfComponents="3"  format="ascii">0 0 0  0.02 0 0  0.04 0 0  0.06 0 0  0.08 0 0  0.1 0 0  0.12 0 0  0.14 0 0  0.16 0 0  0.18 0 0  0.2 0 0  0.22 0 0  0.24 0 0  0.26 0 0  0.28 0 0  0.3 0 0  0.32 0 0  0.34 0 0  0.36 0 0  0.38 0 0  0.4 0 0  0.42 0 0  0.44 0 0  0.46 0 0  0.48 0 0  0.5 0 0  0.52 0 0  0.54 0 0  0.5600000000000001 0 0  0.58 0 0  0.6 0 0  0.62 0 0  0.64 0 0  0.66 0 0  0.68 0 0  0.7 0 0  0.72 0 0  0.74 0 0  0.76 0 0  0.78 0 0  0.8 0 0  0.82 0 0  0.84 0 0  0.86 0 0  0.88 0 0  0.9 0 0  0.92 0 0  0.9399999999999999 0 0  0.96 0 0  0.98 0 0  1 0 0  1.02 0 0  1.04 0 0  1.06 0 0  1.08 0 0  1.1 0 0  1.12 0 0  1.14 0 0  1.16 0 0  1.18 0 0  1.2 0 0  1.22 0 0  1.24 0 0  1.26 0 0  1.28 0 0  1.3 0 0  1.32 0 0  1.34 0 0  1.36 0 0  1.38 0 0  1.4 0 0  1.42 0 0  1.44 0 0  1.46 0 0  1.48 0 0  1.5 0 0  1.52 0 0  1.54 0 0  1.56 0 0  1.58 0 0  1.6 0 0  1.62 0 0  1.64 0 0  1.66 0 0  1.68 0 0  1.7 0 0  1.72 0 0  1.74 0 0  1.76 0 0  1.78 0 0  1.8 0 0  1.82 0 0  1.84 0 0  1.86 0 0  1.88 0 0  1.9 0 0  1.92 0 0  1.94 0 0  1.96 0 0  1.98 0 0  2 0 0  0 0.02 0  0.02 0.02 0  0.04 0.02 0  0.06 0.02 0  0.08 0.02 0  0.1 0.02 0  0.12 0.02 0  0.14 0.02 0  0.16 0.02 0  0.18 0.02 0  0.2 0.02 0  0.22 0.02 0  0.24 0.02 0  0.26 0.02 0  0.28 0.02 0  0.3 0.02 0  0.32 0.02 0  0.34 0.02 0  0.36 0.02 0  0.38 0.02 0  0.4 0.02 0  0.42 0.02 0  0.44 0.02 0  0.46 0.02 0  0.48 0.02 0  0.5 0.02 0  0.52 0.02 0  0.54 0.02 0  0.5600000000000001 0.02 0  0.58 0.02 0  0.6 0.02 0  0.62 0.02 0  0.64 0.02 0  0.66 0.02 0  0.68 0.02 0  0.7 0.02 0  0.72 0.02 0  0.74 0.02 0  0.76 0.02 0  0.78 0.02 0  0.8 0.02 0  0.82 0.02 0  0.84 0.02 0  0.86 0.02 0  0.88 0.02 0  0.9 0.02 0  0.92 0.02 0  0.9399999999999999 0.02 0  0.96 0.02 0  0.98 0.02 0  1 0.02 0  1.02 0.02 0  1.04 0.02 0  1.06 0.02 0  1.08 0.02 0  1.1 0.02 0  1.12 0.02 0  1.14 0.02 0  1.16 0.02 0  1.18 0.02 0  1.2 0.02 0  1.22 0.02 0  1.24 0.02 0  1.26 0.02 0  1.28 0.02 0  1.3 0.02 0  1.32 0.02 0  1.34 0.02 0  1.36 0.02 0  1.38 0.02 0  1.4 0.02 0  1.42 0.02 0  1.44 0.02 0  1.46 0.02 0  1.48 0.02 0  1.5 0.02 0  1.52 0.02 0  1.54 0.02 0  1.56 0.02 0  1.58 0.02 0  1.6 0.02 0  1.62 0.02 0  1.64 0.02 0  1.66 0.02 0  1.68 0.02 0  1.7 0.02 0  1.72 0.02 0  1.74 0.02 0  1.76 0.02 0  1.78 0.02 0  1.8 0.02 0  1.82 0.02 0  1.84 0.02 0  1.86 0.02 0  1.88 0.02 0  1.9 0.02 0  1.92 0.02 0  1.94 0.02 0  1.96 0.02 0  1.98 0.02 0  2 0.02 0  0 0.04 0  0.02 0.04 0  0.04 0.04 0  0.06 0.04 0  0.08 0.04 0  0.1 0.04 0  0.12 0.04 0  0.14 0.04 0  0.16 0.04 0  0.18 0.04 0  0.2 0.04 0  0.22 0.04 0  0.24 0.04 0  0.26 0.04 0  0.28 0.04 0  0.3 0.04 0  0.32 0.04 0  0.34 0.04 0  0.36 0.04 0  0.38 0.04 0  0.4 0.04 0  0.42 0.04 0  0.44 0.04 0  0.46 0.04 0  0.48 0.04 0  0.5 0.04 0  0.52 0.04 0  0.54 0.04 0  0.5600000000000001 0.04 0  0.58 0.04 0  0.6 0.04 0  0.62 0.04 0  0.64 0.04 0  0.66 0.04 0  0.68 0.04 0  0.7 0.04 0  0.72 0.04 0  0.74 0.04 0  0.76 0.04 0  0.78 0.04 0  0.8 0.04 0  0.82 0.04 0  0.84 0.04 0  0.86 0.04 0  0.88 0.04 0  0.9 0.04 0  0.92 0.04 0  0.9399999999999999 0.04 0  0.96 0.04 0  0.98 0.04 0  1 0.04 0  1.02 0.04 0  1.04 0.04 0  1.06 0.04 0  1.08 0.04 0  1.1 0.04 0  1.12 0.04 0  1.14 0.04 0  1.16 0.04 0  1.18 0.04 0  1.2 0.04 0  1.22 0.04 0  1.24 0.04 0  1.26 0.04 0  1.28 0.04 0  1.3 0.04 0  1.32 0.04 0  1.34 0.04 0  1.36 0.04 0  1.38 0.04 0  1.4 0.04 0  1.42 0.04 0  1.44 0.04 0  1.46 0.04 0  1.48 0.04 0  1.5 0.04 0  1.52 0.04 0  1.54 0.04 0  1.56 0.04 0  1.58 0.04 0  1.6 0.04 0  1.62 0.04 0  1.64 0.04 0  1.66 0.04 0  1.68 0.04 0  1.7 0.04 0  1.72 0.04 0  1.74 0.04 0  1.76 0.04 0  1.78 0.04 0  1.8 0.04 0  1.82 0.04 0  1.84 0.04 0  1.86 0.04 0  1.88 0.04 0  1.9 0.04 0  1.92 0.04 0  1.94 0.04 0  1.96 0.04 0  1.98 0.04 0  2 0.04 0  0 0.06 0  0.02 0.06 0  0.04 0.06 0  0.06 0.06 0  0.08 0.06 0  0.1 0.06 0  0.12 0.06 0  0.14 0.06 0  0.16 0.06 0  0.18 0.06 0  0.2 0.06 0  0.22 0.06 0  0.24 0.06 0  0.26 0.06 0  0.28 0.06 0  0.3 0.06 0  0.32 0.06 0  0.34 0.06 0  0.36 0.06 0  0.38 0.06 0  0.4 0.06 0  0.42 0.06 0  0.44 0.06 0  0.46 0.06 0  0.48 0.06 0  0.5 0.06 0  0.52 0.06 0  0.54 0.06 0  0.5600000000000001 0.06 0  0.58 0.06 0  0.6 0.06 0  0.62 0.06 0  0.64 0.06 0  0.66 0.06 0  0.68 0.06 0  0.7 0.06 0  0.72 0.06 0  0.74 0.06 0  0.76 0.06 0  0.78 0.06 0  0.8 0.06 0  0.82 0.06 0  0.84 0.06 0  0.86 0.06 0  0.88 0.06 0  0.9 0.06 0  0.92 0.06 0  0.9399999999999999 0.06 0  0.96 0.06 0  0.98 0.06 0  1 0.06 0  1.02 0.06 0  1.04 0.06 0  1.06 0.06 0  1.08 0.06 0  1.1 0.06 0  1.12 0.06 0  1.14 0.06 0  1.16 0.06 0  1.18 0.06 0  1.2 0.06 0  1.22 0.06 0  1.24 0.06 0  1.26 0.06 0  1.28 0.06 0  1.3 0.06 0  1.32 0.06 0  1.34 0.06 0  1.36 0.06 0  1.38 0.06 0  1.4 0.06 0  1.42 0.06 0  1.44 0.06 0  1.46 0.06 0  1.48 0.06 0  1.5 0.06 0  1.52 0.06 0  1.54 0.06 0  1.56 0.06 0  1.58 0.06 0  1.6 0.06 0  1.62 0.06 0  1.64 0.06 0  1.66 0.06 0  1.68 0.06 0  1.7 0.06 0  1.72 0.06 0  1.74 0.06 0  1.76 0.06 0  1.78 0.06 0  1.8 0.06 0  1.82 0.06 0  1.84 0.06 0  1.86 0.06 0  1.88 0.06 0  1.9 0.06 0  1.92 0.06 0  1.94 0.06 0  1.96 0.06 0  1.98 0.06 0  2 0.06 0  0 0.08 0  0.02 0.08 0  0.04 0.08 0  0.06 0.08 0  0.08 0.08 0  0.1 0.08 0  0.12 0.08 0  0.14 0.08 0  0.16 0.08 0  0.18 0.08 0  0.2 0.08 0  0.22 0.08 0  0.24 0.08 0  0.26 0.08 0  0.28 0.08 0  0.3 0.08 0  0.32 0.08 0  0.34 0.08 0  0.36 0.08 0  0.38 0.08 0  0.4 0.08 0  0.42 0.08 0  0.44 0.08 0  0.46 0.08 0  0.48 0.08 0  0.5 0.08 0  0.52 0.08 0  0.54 0.08 0  0.5600000000000001 0.08 0  0.58 0.08 0  0.6 0.08 0  0.62 0.08 0  0.64 0.08 0  0.66 0.08 0  0.68 0.08 0  0.7 0.08 0  0.72 0.08 0  0.74 0.08 0  0.76 0.08 0  0.78 0.08 0  0.8 0.08 0  0.82 0.08 0  0.84 0.08 0  0.86 0.08 0  0.88 0.08 0  0.9 0.08 0  0.92 0.08 0  0.9399999999999999 0.08 0  0.96 0.08 0  0.98 0.08 0  1 0.08 0  1.02 0.08 0  1.04 0.08 0  1.06 0.08 0  1.08 0.08 0  1.1 0.08 0  1.12 0.08 0  1.14 0.08 0  1.16 0.08 0  1.18 0.08 0  1.2 0.08 0  1.22 0.08 0  1.24 0.08 0  1.26 0.08 0  1.28 0.08 0  1.3 0.08 0  1.32 0.08 0  1.34 0.08 0  1.36 0.08 0  1.38 0.08 0  1.4 0.08 0  1.42 0.08 0  1.44 0.08 0  1.46 0.08 0  1.48 0.08 0  1.5 0.08 0  1.52 0.08 0  1.54 0.08 0  1.56 0.08 0  1.58 0.08 0  1.6 0.08 0  1.62 0.08 0  1.64 0.08 0  1.66 0.08 0  1.68 0.08 0  1.7 0.08 0  1.72 0.08 0  1.74 0.08 0  1.76 0.08 0  1.78 0.08 0  1.8 0.08 0  1.82 0.08 0  1.84 0.08 0  1.86 0.08 0  1.88 0.08 0  1.9 0.08 0  1.92 0.08 0  1.94 0.08 0  1.96 0.08 0  1.98 0.08 0  2 0.08 0  0 0.1 0  0.02 0.1 0  0.04 0.1 0  0.06 0.1 0  0.08 0.1 0  0.1 0.1 0  0.12 0.1 0  0.14 0.1 0  0.16 0.1 0  0.18 0.1 0  0.2 0.1 0  0.22 0.1 0  0.24 0.1 0  0.26 0.1 0  0.28 0.1 0  0.3 0.1 0  0.32 0.1 0  0.34 0.1 0  0.36 0.1 0  0.38 0.1 0  0.4 0.1 0  0.42 0.1 0  0.44 0.1 0  0.46 0.1 0  0.48 0.1 0  0.5 0.1 0  0.52 0.1 0  0.54 0.1 0  0.5600000000000001 0.1 0  0.58 0.1 0  0.6 0.1 0  0.62 0.1 0  0.64 0.1 0  0.66 0.1 0  0.68 0.1 0  0.7 0.1 0  0.72 0.1 0  0.74 0.1 0  0.76 0.1 0  0.78 0.1 0  0.8 0.1 0  0.82 0.1 0  0.84 0.1 0  0.86 0.1 0  0.88 0.1 0  0.9 0.1 0  0.92 0.1 0  0.9399999999999999 0.1 0  0.96 0.1 0  0.98 0.1 0  1 0.1 0  1.02 0.1 0  1.04 0.1 0  1.06 0.1 0  1.08 0.1 0  1.1 0.1 0  1.12 0.1 0  1.14 0.1 0  1.16 0.1 0  1.18 0.1 0  1.2 0.1 0  1.22 0.1 0  1.24 0.1 0  1.26 0.1 0  1.28 0.1 0  1.3 0.1 0  1.32 0.1 0  1.34 0.1 0  1.36 0.1 0  1.38 0.1 0  1.4 0.1 0  1.42 0.1 0  1.44 0.1 0  1.46 0.1 0  1.48 0.1 0  1.5 0.1 0  1.52 0.1 0  1.54 0.1 0  1.56 0.1 0  1.58 0.1 0  1.6 0.1 0  1.62 0.1 0  1.64 0.1 0  1.66 0.1 0  1.68 0.1 0  1.7 0.1 0  1.72 0.1 0  1.74 0.1 0  1.76 0.1 0  1.78 0.1 0  1.8 0.1 0  1.82 0.1 0  1.84 0.1 0  1.86 0.1 0  1.88 0.1 0  1.9 0.1 0  1.92 0.1 0  1.94 0.1 0  1.96 0.1 0  1.98 0.1 0  2 0.1 0  0 0.12 0  0.02 0.12 0  0.04 0.12 0  0.06 0.12 0  0.08 0.12 0  0.1 0.12 0  0.12 0.12 0  0.14 0.12 0  0.16 0.12 0  0.18 0.12 0  0.2 0.12 0  0.22 0.12 0  0.24 0.12 0  0.26 0.12 0  0.28 0.12 0  0.3 0.12 0  0.32 0.12 0  0.34 0.12 0  0.36 0.12 0  0.38 0.12 0  0.4 0.12 0  0.42 0.12 0  0.44 0.12 0  0.46 0.12 0  0.48 0.12 0  0.5 0.12 0  0.52 0.12 0  0.54 0.12 0  0.5600000000000001 0.12 0  0.58 0.12 0  0.6 0.12 0  0.62 0.12 0  0.64 0.12 0  0.66 0.12 0  0.68 0.12 0  0.7 0.12 0  0.72 0.12 0  0.74 0.12 0  0.76 0.12 0  0.78 0.12 0  0.8 0.12 0  0.82 0.12 0  0.84 0.12 0  0.86 0.12 0  0.88 0.12 0  0.9 0.12 0  0.92 0.12 0  0.9399999999999999 0.12 0  0.96 0.12 0  0.98 0.12 0  1 0.12 0  1.02 0.12 0  1.04 0.12 0  1.06 0.12 0  1.08 0.12 0  1.1 0.12 0  1.12 0.12 0  1.14 0.12 0  1.16 0.12 0  1.18 0.12 0  1.2 0.12 0  1.22 0.12 0  1.24 0.12 0  1.26 0.12 0  1.28 0.12 0  1.3 0.12 0  1.32 0.12 0  1.34 0.12 0  1.36 0.12 0  1.38 0.12 0  1.4 0.12 0  1.42 0.12 0  1.44 0.12 0  1.46 0.12 0  1.48 0.12 0  1.5 0.12 0  1.52 0.12 0  1.54 0.12 0  1.56 0.12 0  1.58 0.12 0  1.6 0.12 0  1.62 0.12 0  1.64 0.12 0  1.66 0.12 0  1.68 0.12 0  1.7 0.12 0  1.72 0.12 0  1.74 0.12 0  1.76 0.12 0  1.78 0.12 0  1.8 0.12 0  1.82 0.12 0  1.84 0.12 0  1.86 0.12 0  1.88 0.12 0  1.9 0.12 0  1.92 0.12 0  1.94 0.12 0  1.96 0.12 0  1.98 0.12 0  2 0.12 0  0 0.14 0  0.02 0.14 0  0.04 0.14 0  0.06 0.14 0  0.08 0.14 0  0.1 0.14 0  0.12 0.14 0  0.14 0.14 0  0.16 0.14 0  0.18 0.14 0  0.2 0.14 0  0.22 0.14 0  0.24 0.14 0  0.26 0.14 0  0.28 0.14 0  0.3 0.14 0  0.32 0.14 0  0.34 0.14 0  0.36 0.14 0  0.38 0.14 0  0.4 0.14 0  0.42 0.14 0  0.44 0.14 0  0.46 0.14 0  0.48 0.14 0  0.5 0.14 0  0.52 0.14 0  0.54 0.14 0  0.5600000000000001 0.14 0  0.58 0.14 0  0.6 0.14 0  0.62 0.14 0  0.64 0.14 0  0.66 0.14 0  0.68 0.14 0  0.7 0.14 0  0.72 0.14 0  0.74 0.14 0  0.76 0.14 0  0.78 0.14 0  0.8 0.14 0  0.82 0.14 0  0.84 0.14 0  0.86 0.14 0  0.88 0.14 0  0.9 0.14 0  0.92 0.14 0  0.9399999999999999 0.14 0  0.96 0.14 0  0.98 0.14 0  1 0.14 0  1.02 0.14 0  1.04 0.14 0  1.06 0.14 0  1.08 0.14 0  1.1 0.14 0  1.12 0.14 0  1.14 0.14 0  1.16 0.14 0  1.18 0.14 0  1.2 0.14 0  1.22 0.14 0  1.24 0.14 0  1.26 0.14 0  1.28 0.14 0  1.3 0.14 0  1.32 0.14 0  1.34 0.14 0  1.36 0.14 0  1.38 0.14 0  1.4 0.14 0  1.42 0.14 0  1.44 0.14 0  1.46 0.14 0  1.48 0.14 0  1
[...]
<PointData  Scalars="sols[i]"> 
<DataArray  type="Float64"  Name="sols[i]"  format="ascii">2.3021448792060370e-01  1.6200556188544851e-01  1.6200549562492142e-01  1.6200537242935353e-01  1.6200516569478063e-01  1.6200483676049424e-01  1.6200433207233045e-01  1.6200358263453249e-01  1.6200250551865616e-01  1.6200100650341781e-01  1.6199898304214896e-01  1.6199632696490912e-01  1.6199292640357876e-01  1.6198866641047927e-01  1.6198342771379712e-01  1.6197708309023492e-01  1.6196949097306282e-01  1.6196048614496739e-01  1.6194986769189529e-01  1.6193738482613085e-01  1.6192272169186256e-01  1.6190548306042030e-01  1.6188518410038888e-01  1.6186124932694984e-01  1.6183302528192969e-01  1.6179981261313803e-01  1.6176092052335075e-01  1.6171574253674423e-01  1.6166384934342418e-01  1.6160509114077390e-01  1.6153969941626922e-01  1.6146837660795121e-01  1.6139236171028098e-01  1.6131346101547048e-01  1.6123403616584575e-01  1.6115694642950795e-01  1.6108544730087052e-01  1.6102305542197445e-01  1.6097340997613283e-01  1.6094010606731857e-01  1.6092651465786756e-01  1.6093566428943867e-01  1.6097012375194431e-01  1.6103191030108316e-01  1.6112242353165446e-01  1.6124239726966247e-01  1.6139186178633066e-01  1.6157011298726812e-01  1.6177569575083101e-01  1.6200642490350842e-01  1.6225947212991426e-01  1.6253152967437767e-01  1.6281902356115721e-01  1.6311829510735759e-01  1.6342563624872444e-01  1.6373711637959296e-01  1.6404836854102836e-01  1.6435463456614913e-01  1.6465113646925925e-01  1.6493348531290497e-01  1.6519771358991522e-01  1.6544014597406351e-01  1.6565757929280192e-01  1.6584728701675142e-01  1.6600675014160071e-01  1.6613437107524359e-01  1.6623131067247920e-01  1.6630249021387736e-01  1.6635570942952788e-01  1.6640095881996433e-01  1.6645202612256590e-01  1.6652923313366194e-01  1.6666006677859968e-01  1.6687554719630049e-01  1.6720241753028758e-01  1.6765209287030242e-01  1.6820662422930727e-01  1.6880345540623376e-01  1.6932942448935034e-01  1.6964834907267926e-01  1.6966162602133214e-01  1.6935752116252173e-01  1.6881777134198458e-01  1.6816272109314701e-01  1.6748448023262197e-01  1.6682413577064995e-01  1.6618765805424096e-01  1.6557063403997341e-01  1.6497403186759077e-01  1.6440823534680504e-01  1.6388918217931706e-01  1.6343219900465086e-01  1.6304741775121323e-01  1.6273798809288620e-01  1.6250057240559659e-01  1.6232708300109613e-01  1.6220679632918467e-01  1.6212835368553472e-01  1.6208147499234862e-01  1.6205838866063610e-01  3.4395086415149190e-01  1.6200555766656394e-01  8.3615668026074050e-02  8.3616028119575136e-02  8.3616687809233078e-02  8.3617741813293053e-02  8.3619307820369984e-02  8.3621527547744948e-02  8.3624563470816995e-02  8.3628591401425825e-02  8.3633791419593428e-02  8.3640339141379319e-02  8.3648398259188461e-02  8.3658114447700646e-02  8.3669610171832359e-02  8.3682979619293635e-02  8.3698282882081504e-02  8.3715538635836820e-02  8.3734714936308394e-02  8.3755718358585335e-02  8.3778382477818825e-02  8.3802457516052781e-02  8.3827603551337310e-02  8.3853389754587129e-02  8.3879301692396532e-02  8.3904757641091024e-02  8.3929134034833139e-02  8.3951799040008754e-02  8.3972151860707223e-02  8.3989664748546536e-02  8.4003923981738754e-02  8.4014665915143616e-02  8.4021804741986644e-02  8.4025449700908736e-02  8.4025910773043694e-02  8.4023693056971854e-02  8.4019480716298681e-02  8.4014111568857977e-02  8.4008543164601865e-02  8.4003813960448689e-02  8.4001008637223346e-02  8.4001210174080368e-02  8.4005452449884901e-02  8.4014685482333290e-02  8.4029746724996440e-02  8.4051341618010270e-02  8.4080031303843616e-02  8.4116222817865863e-02  8.4160156060778271e-02  8.4211884690875996e-02  8.4271257823112955e-02  8.4337918041596210e-02  8.4411330747484498e-02  8.4490847502592781e-02  8.4575775844493981e-02  8.4665397666904688e-02  8.4758883853170916e-02  8.4855173119757016e-02  8.4952968881498003e-02  8.5050894428301382e-02  8.5147662191246073e-02  8.5242025283134820e-02  8.5332673305905327e-02  8.5418364261115765e-02  8.5497904035021638e-02  8.5569825024402885e-02  8.5632506914217116e-02  8.5685005301505135e-02  8.5727751034276711e-02  8.5762412877853536e-02  8.5791626569589802e-02  8.5819604028040897e-02  8.5853551304275341e-02  8.5904655064815053e-02  8.5987751991872197e-02  8.6119071064605882e-02  8.6311313822221361e-02  8.6565824719737797e-02  8.6862269038530629e-02  8.7149848648815573e-02  8.7355721027286642e-02  8.7416243671594035e-02  8.7309407823638496e-02  8.7069087799871714e-02  8.6759060577877842e-02  8.6432408178609019e-02  8.6114577903595418e-02  8.5809594785836482e-02  8.5513432133362002e-02  8.5223716326024018e-02  8.4943426858253124e-02  8.4679815987789800e-02  8.4441288399522640e-02  8.4234565740261752e-02  8.4063170664207015e-02  8.3927233712451949e-02  8.3824163095441356e-02  8.3749674665717921e-02  8.3698823136798731e-02  8.3666859239674762e-02  8.3649905111158274e-02  1.6205745920271664e-01  1.6200547725704184e-01  8.3616026823605902e-02  8.3616573645612285e-02  8.3617530729487438e-02  8.3618978817099787e-02  8.3621003394395640e-02  8.3623695141380044e-02  8.3627153372265575e-02  8.3631486661328899e-02  8.3636810051461993e-02  8.3643240186398404e-02  8.3650889664424591e-02  8.3659861311279102e-02  8.3670242487685467e-02  8.3682099153749773e-02  8.3695469252860547e-02  8.3710355069975984e-02  8.3726714573538086e-02  8.3744452311491524e-02  8.3763411085239908e-02  8.3783366267927234e-02  8.3804024803378535e-02  8.3825030436842363e-02  8.3845975841993547e-02  8.3866421274157235e-02  8.3885918481543559e-02  8.3904038138198175e-02  8.3920398550469372e-02  8.3934693331666393e-02  8.3946715669674335e-02  8.3956377178183841e-02  8.3963720172238354e-02  8.3968923205440013e-02  8.3972300466520808e-02  8.3974295886920305e-02  8.3975472559767894e-02  8.3976497582708462e-02  8.3978121965071484e-02  8.3981155284534731e-02  8.3986440134567894e-02  8.3994827822998122e-02  8.4007143012487628e-02  8.4024153862532397e-02  8.4046551013141041e-02  8.4074933020553258e-02  8.4109794148290798e-02  8.4151509310822048e-02  8.4200310763954844e-02  8.4256255961064022e-02  8.4319202747182784e-02  8.4388816450927676e-02  8.4464625672544411e-02  8.4546125780769754e-02  8.4632882830377926e-02  8.4724544011561681e-02  8.4820670316676783e-02  8.4920548756770409e-02  8.5023250526072056e-02  8.5127935842141678e-02  8.5234106258472303e-02  8.5341343639743356e-02  8.5448973641190334e-02  8.5556342050484055e-02  8.5662896209795322e-02  8.5767576837101345e-02  8.5868425086511657e-02  8.5963085533227956e-02  8.6049945322776697e-02  8.6128955617949685e-02  8.6201717644099424e-02  8.6271556236194161e-02  8.6344860639838317e-02  8.6432358169703030e-02  8.6549858587948059e-02  8.6717613950416342e-02  8.6953496492604532e-02  8.7258692881882816e-02  8.7599182727912075e-02  8.7891514905070509e-02  8.8026368040307015e-02  8.7927480370434630e-02  8.7594701028284344e-02  8.7117659932095096e-02  8.6618619350016149e-02  8.6177619900324201e-02  8.5816820450255640e-02  8.5522543937891132e-02  8.5270795341176500e-02  8.5041797016906090e-02  8.4825184168159720e-02  8.4619065634737659e-02  8.4426526470431848e-02  8.4252183912610093e-02  8.4099889600829578e-02  8.3971704359207811e-02  8.3867833828157975e-02  8.3787096824326987e-02  8.3727558716922487e-02  8.3687124942067689e-02  8.3664127080221320e-02  1.6207630023915723e-01  1.6200532105913815e-01  8.3616682899935943e-02  8.3617526154938074e-02  8.3618917188207562e-02  8.3620904788893738e-02  8.3623535433718241e-02  8.3626847420741585e-02  8.3630875757282119e-02  8.3635658761848961e-02  8.3641241607616393e-02  8.3647676233037455e-02  8.3655018543268775e-02  8.3663323893547734e-02  8.3672641454167140e-02  8.3683007666618528e-02  8.3694438806106664e-02  8.3706922746510759e-02  8.3720410407910811e-02  8.3734807936388128e-02  8.3749971240667132e-02  8.3765705057125633e-02  8.3781768351315941e-02  8.3797886561736951e-02  8.3813769697465637e-02  8.3829134136819819e-02  8.3843725360628021e-02  8.3857338964523395e-02  8.3869837873764189e-02  8.3881164294844990e-02  8.3891345403866280e-02  8.3900492805950980e-02  8.3908797121255568e-02  8.3916520043998036e-02  8.3923986388928021e-02  8.3931577799718438e-02  8.3939728281280226e-02  8.3948920345724279e-02  8.3959679919719879e-02  8.3972566659199249e-02  8.3988161736229222e-02  8.4007060023032265e-02  8.4029849812503971e-02  8.4057093600928293e-02  8.4089316332595088e-02  8.4126999219973714e-02  8.4170570834130404e-02  8.4220387110485698e-02  8.4276693061226524e-02  8.4339567506848331e-02  8.4408886813107195e-02  8.4484350149473003e-02  8.4565585609725491e-02  8.4652336861904570e-02  8.4744649109061626e-02  8.4842884033787258e-02  8.4947391029930278e-02  8.5058185067702727e-02  8.5175103074373412e-02  8.5298335890356583e-02  8.5428876305601545e-02  8.5567949123071377e-02  8.5716146939551610e-02  8.5873649881389333e-02  8.6040528807885278e-02  8.6216345440610867e-02  8.6398908263528043e-02  8.6583094418085205e-02  8.6762001169767802e-02  8.6930327170925664e-02  8.7086621369248399e-02  8.7232883706302292e-02  8.7377470273730662e-02  8.7537327670806755e-02  8.7734778229196772e-02  8.7990341102411621e-02  8.8312508071550347e-02  8.8686494244986119e-02  8.9067612087175535e-02  8.9387273536472397e-02  8.9538105665998680e-02  8.9314197452111332e-02  8.8600608192676511e-02  8.7652637114853452e-02  8.6783643610075137e-02  8.6099753503116966e-02  8.5620673688462434e-02  8.5300330008471481e-02  8.5077258835846631e-02  8.4901769775549640e-02  8.4743891547620825e-02  8.4590637508341573e-02  8.4439731759108183e-02  8.4294063158942875e-02  8.4158019555939600e-02  8.4035535058892302e-02  8.3929359451326402e-02  8.3841056783525478e-02  8.3771352744087924e-02  8.3720637483367860e-02  8.3689696810629072e-02  1.6211318954796733e-01  1.6200504845922267e-01  8.3617727506339556e-02  8.3618960761516731e-02  8.3620887236864075e-02  8.3623498837662430e-02  8.3626796970398515e-02  8.3630773969013306e-02  8.3635412289305017e-02  8.3640692273146897e-02  8.3646599851696077e-02  8.3653130797057232e-02  8.3660291191567024e-02  8.3668094821349237e-02  8.3676558243549817e-02  8.3685694031095159e-02  8.3695502552318557e-02  8.3705962785833254e-02  8.3717023194591636e-02  8.3728594361589984e-02  8.3740545652466053e-02  8.3752708832380160e-02  8.3764890386441734e-02  8.3776891716340368e-02  8.3788534160057201e-02  8.3799684568545654e-02  8.3810277010607934e-02  8.3820327296557307e-02  8.3829938670867049e-02  8.3839298088928108e-02  8.3848663326804684e-02  8.3858342959499607e-02  8.3868673247843986e-02  8.3879997023657338e-02  8.3892649129541072e-02  8.3906950731719693e-02  8.3923211654196958e-02  8.3941737374180592e-02  8.3962836817295688e-02  8.3986828137227285e-02  8.4014047997175975e-02  8.4044851963317457e-02  8.4079593540149142e-02  8.4118629818376242e-02  8.4162325881556282e-02  8.4211063017335150e-02  8.4265239464374475e-02  8.4325248556117130e-02  8.4391420622390995e-02  8.4463929473420421e-02  8.4542742221528439e-02  8.4627684445456847e-02  8.4718629739059331e-02  8.4815824138528173e-02  8.4920223607677328e-02  8.5033542211130630e-02  8.5157621071651590e-02  8.5293912919670783e-02  8.5443874652149601e-02  8.5609674283706874e-02  8.5794728928665950e-02  8.6002841518394768e-02  8.6236832022027712e-02  8.6497712932142243e-02  8.6784211968764680e-02  8.7094695840974776e-02  8.7427052185193532e-02  8.7775976913162898e-02  8.8133930065967231e-02  8.8480297389232895e-02  8.8761838825640954e-02  8.8927554352794050e-02  8.8973629055426107e-02  8.8750394989270287e-02  8.8195570105700824e-02  8.7752386757490808e-02  8.6865298007030509e-02  8.5068545442222823e-02  8.2315836318117050e-02  8.0946840075775281e-02  8.3759488737766286e-02  8.7686835489449791e-02  8.9030400856410230e-02  8.8812154000935700e-02  8.7377266602249731e-02  8.6278181091893655e-02  8.5583746316608172e-02  8.5187776193314732e-02  8.4969511369927975e-02  8.4832226758607035e-02  8.4718815710632833e-02  8.4604177268812961e-02  8.4482033968686240e-02  8.4354935707727730e-02  8.4228428730040161e-02  8.4108164362599214e-02  8.3998754692169511e-02  8.3903582004507191e-02  8.3825110454769758e-02  8.3765485139517953e-02  8.3727396906024279e-02  1.6217099776790259e-01  1.6200460350523715e-01  8.3619271004167633e-02  8.3620951701838003e-02  8.3623471086644280e-02  8.3626740269262978e-02  8.3630708246926394e-02  8.3635327148600835e-02  8.3640540348202133e-02  8.3646286426338118e-02  8.3652507930634168e-02  8.3659158618809765e-02  8.3666206980636829e-02  8.3673635876875735e-02  8.3681438763340096e-02  8.3689612996632592e-02  8.3698150722869583e-02  8.3707028170909650e-02  8.3716195029480883e-02  8.3725566525927955e-02  8.3735021451595379e-02  8.3744410638335112e-02  8.3753577704484813e-02  8.3762389160967080e-02  8.3770767939270754e-02  8.3778723463970819e-02  8.3786372069088066e-02  8.3793944281482943e-02  8.3801778422698689e-02  8.3810300854607361e-02  8.3819994073135590e-02  8.3831356747688462e-02  8.3844862854077842e-02  8.3860928184277386e-02  8.3879891001779727e-02  8.3902009378874778e-02  8.3927472285110188e-02  8.3956417609191689e-02  8.3988949514831546e-02  8.4025149280188324e-02  8.4065114264187793e-02  8.4109011165950084e-02  8.4156968994743342e-02  8.4209141911580049e-02  8.4265754473449084e-02  8.4327130209234907e-02  8.4393714844090306e-02  8.4466062508642095e-02  8.4544755894157969e-02  8.4630251427361400e-02  8.4722822243644150e-02  8.4822717522854571e-02  8.4930484375798032e-02  8.5047473575691881e-02  8.5176385237423019e-02  8.5321420358420566e-02  8.5487090568606219e-02  8.5677395572245657e-02  8.5896857629186960e-02  8.6151228497487298e-02  8.6447015098833291e-02  8.6789820915786742e-02  8.7185212035312903e-02  8.7639249333818670e-02  8.8160669255668761e-02  8.8742718237898477e-02  8.9282767559440701e-02  8.9705229504020101e-02  8.9915112971205371e-02  8.9282241787984482e-02  8.8362975578532676e-02  8.6445133435863741e-02  8.2566082328585394e-02  7.4270062055340230e-02  5.7300721479072010e-02  2.5417733210667693e-02  1.9940274425471097e-02  5.2237057314380907e-02  1.5525741558858680e-01  2.1924075503807858e-01  1.1808717968289431e-01  3.5035083641147304e-02  6.3364429609078676e-02  8.7725248108154394e-02  8.8237705909087527e-02  8.6640795949571706e-02  8.5648706864729779e-02  8.5142756669579850e-02  8.4918679025162008e-02  8.4813308571592153e-02  8.4734743425567458e-02  8.4646476355311542e-02  8.4541133900926421e-02  8.4423167844331098e-02  8.4300261969462928e-02  8.4179750712416915e-02  8.4067478299747395e-02  8.3967781263150271e-02  8.3884029159677728e-02  8.3819403120305669e-02  8.3777531488260990e-02  1.6225226901030196e-01  1.6200391677246226e-01  8.3621441697425442e-02  8.3623570554411844e-02  8.3626681190863819e-02  8.3630588441404682e-02  8.3635181052908000e-02  8.3640372958719789e-02  8.3646078529231949e-02  8.3652209193883997e-02  8.3658680152870257e-02  8.3665418704681888e-02  8.3672369998430696e-02  8.3679498782146144e-02  8.3686786919613412e-02  8.3694226803140065e-02  8.3701811021293177e-02  8.3709519264550905e-02  8.3717304955270161e-02  8.3725085481300365e-02  8.3732740682285881e-02  8.3740127290076988e-02  8.3747111187054232e-02  8.3753610859074193e-02  8.3759641842983387e-02  8.3765351972398094e-02  8.3771039382322138e-02  8.3777150718187587e-02  8.3784261247279071e-02  8.3793037926592498e-02  8.3804186950604487e-02  8.3818392219117507e-02  8.3836255933284490e-02  8.3858253692212004e-02  8.3884713414769038e-02  8.3915820062495206e-02  8.3951639357170316e-02  8.3992148833719235e-02  8.4037265407103087e-02  8.4086860711989203e-02  8.4140783350784829e-02  8.4198997384748647e-02  8.4261501430604818e-02  8.4328278780563259e-02  8.4399462218927052e-02  8.4475408501842389e-02  8.4556767432005034e-02  8.4644500683246568e-02  8.4739789213032490e-02  8.4843780851654560e-02  8.4957554371076771e-02  8.5082490556638996e-02  8.5220818437138329e-02  8.5376303862088193e-02  8.5554843911703538e-02  8.5764742262345969e-02  8.6014634579231281e-02  8.6312047140807896e-02  8.6665537372874704e-02  8.7086705857051860e-02  8.7591682247952704e-02  8.8208413636391786e-02  8.8918681668145677e-02  8.9601669471769244e-02  9.0159737679246843e-02  8.9960973481083534e-02  8.8798412361298942e-02  8.6093736760385189e-02  7.9548221031380928e-02  6.3282258376099354e-02  3.8670880099623564e-02  3.0175893697019424e-02  7.8459177325559473e-02  2.1580791176325262e-01  4.3154825403422648e-01  6.8634061672452640e-01  8.5894301556761155e-01  9.0718657437226169e-01  9.0096972565985012e-01  8.9553372377074369e-01  9.0155028292965866e-01  9.0262949552087846e-01  8.1502153703963642e-01  3.3039922403632066e-01  1.9512551578426479e-01  1.7870579368955289e-01  1.2759985267425616e-01  8.5078355226948482e-02  8.4876450439607981e-02  8.4817281761293190e-02  8.4773600524532158e-02  8.4703849400756648e-02  8.4605680700380576e-02  8.4488997488658818e-02  8.4364992451678097e-02  8.4242770836594982e-02  8.4128906767050871e-02  8.4028020422603752e-02  8.3943776314570590e-02  8.3879804332598243e-02  8.3839473164418657e-02  1.6235768373079384e-01  1.6200291393821292e-01  8.3624379740482632e-02  8.3626887545280651e-02  8.3630515695868574e-02  8.3634981154675644e-02  8.3640106528062891e-02  8.3645766194657217e-02  8.3651850832250504e-02  8.3658255338363047e-02  8.3664881151246082e-02  8.3671643666583653e-02  8.3678478973764847e-02  8.3685347127363335e-02  8.3692230747107077e-02  8.3699128347467441e-02  8.3706042241836490e-02  8.3712961869749414e-02  8.3719846021594838e-02  8.3726609453847883e-02  8.3733120340530001e-02  8.3739222858312409e-02  8.3744786299978072e-02  8.3749767101518838e-02  8.3754267326097281e-02  8.3758575305373936e-02  8.3763178572301381e-02  8.3768749772865428e-02  8.3776111365578970e-02  8.3786179812265160e-02  8.3799889779765366e-02  8.3818107820822385e-02  8.3841552640586930e-02  8.3870740008504877e-02  8.3905964827888674e-02  8.3947320294593633e-02  8.3994740091425796e-02  8.4048044871191649e-02  8.4106981174127488e-02  8.4171251537981107e-02  8.4240546082318235e-02  8.4314619760068168e-02  8.4393363040722938e-02  8.4476741916939102e-02  8.4564956657606674e-02  8.4658611921578419e-02  8.4758887027570895e-02  8.4867640011733483e-02  8.4987335822297061e-02  8.5120624334004177e-02  8.5270386198324347e-02  8.5440499669863432e-02  8.5636718641199788e-02  8.5867583617381699e-02  8.6144359086677280e-02  8.6480739139487076e-02  8.6890072161438778e-02  8.7387924359772662e-02  8.8011320620411254e-02  8.8772567886918119e-02  8.9539945949060562e-02  9.0215892458235164e-02  8.9988838318661973e-02  8.8072944344511989e-02  8.3541625212369144e-02  7.1701470869116837e-02  5.2718338472521803e-02  4.1540663596283875e-02  1.3644631656855349e-01  3.4355000828506632e-01  6.4045154072747845e-01  8.4207404248570317e-01  9.0331753101685586e-01  8.9814506765523860e-01  8.8540744169270058e-01  8.7437622603668741e-01  8.6736943184120863e-01  8.5827684719790465e-01  8.4574708200296678e-01  8.4401711459464035e-01  8.5368278695999034e-01  8.6980161924312882e-01  9.0218809270392109e-01  8.2206357039647437e-01  6.3350878520459231e-01  5.5386460368422386e-01  5.2633184279144984e-01  1.6676148744388158e-01  8.4812263254519141e-02  8.4833064481023818e-02  8.4829450177351509e-02  8.4770823746458959e-02  8.4670011795205724e-02  8.4546916221452051e-02  8.4417517199100914e-02  8.4292546268796953e-02  8.4178726245780877e-02  8.4080351378467769e-02  8.4000892482971878e-02  8.3943940711971657e-02  8.3911372937591794e-02  1.6248495145364697e-01  1.6200153178973312e-01  8.3628226284910581e-02  8.3630970087952353e-02  8.3634964231920794e-02  8.3639842544290216e-02  8.3645359764030106e-02  8.3651347764040054e-02  8.3657674858786002e-02  8.3664225780352472e-02  8.3670898398392202e-02  8.3677608556707250e-02  8.3684296384146789e-02  8.3690930156940541e-02  8.3697505458186480e-02  8.3704038050642568e-02  8.3710549372773765e-02  8.3717044859601811e-02  8.3723489757716887e-02  8.3729789619527692e-02  8.3735783666548325e-02  8.3741279349284131e-02  8.37461269684