<?xml version="1.0"?>
<VTKFile type="UnstructuredGrid"  version="0.1"  >
<UnstructuredGrid>
<Piece  NumberOfPoints="5151" NumberOfCells="10000">
<Points>
<DataArray  type="Float64"  NumberOfComponents="3"  format="ascii">0 0 0  0.02 0 0  0.04 0 0  0.06 0 0  0.08 0 0  0.1 0 0  0.12 0 0  0.14 0 0  0.16 0 0  0.18 0 0  0.2 0 0  0.22 0 0  0.24 0 0  0.26 0 0  0.28 0 0  0.3 0 0  0.32 0 0  0.34 0 0  0.36 0 0  0.38 0 0  0.4 0 0  0.42 0 0  0.44 0 0  0.46 0 0  0.48 0 0  0.5 0 0  0.52 0 0  0.54 0 0  0.5600000000000001 0 0  0.58 0 0  0.6 0 0  0.62 0 0  0.64 0 0  0.66 0 0  0.68 0 0  0.7 0 0  0.72 0 0  0.74 0 0  0.76 0 0  0.78 0 0  0.8 0 0  0.82 0 0  0.84 0 0  0.86 0 0  0.88 0 0  0.9 0 0  0.92 0 0  0.9399999999999999 0 0  0.96 0 0  0.98 0 0  1 0 0  1.02 0 0  1.04 0 0  1.06 0 0  1.08 0 0  1.1 0 0  1.12 0 0  1.14 0 0  1.16 0 0  1.18 0 0  1.2 0 0  1.22 0 0  1.24 0 0  1.26 0 0  1.28 0 0  1.3 0 0  1.32 0 0  1.34 0 0  1.36 0 0  1.38 0 0  1.4 0 0  1.42 0 0  1.44 0 0  1.46 0 0  1.48 0 0  1.5 0 0  1.52 0 0  1.54 0 0  1.56 0 0  1.58 0 0  1.6 0 0  1.62 0 0  1.64 0 0  1.66 0 0  1.68 0 0  1.7 0 0  1.72 0 0  1.74 0 0  1.76 0 0  1.78 0 0  1.8 0 0  1.82 0 0  1.84 0 0  1.86 0 0  1.88 0 0  1.9 0 0  1.92 0 0  1.94 0 0  1.96 0 0  1.98 0 0  2 0 0  0 0.02 0  0.02 0.02 0  0.04 0.02 0  0.06 0.02 0  0.08 0.02 0  0.1 0.02 0  0.12 0.02 0  0.14 0.02 0  0.16 0.02 0  0.18 0.02 0  0.2 0.02 0  0.22 0.02 0  0.24 0.02 0  0.26 0.02 0  0.28 0.02 0  0.3 0.02 0  0.32 0.02 0  0.34 0.02 0  0.36 0.02 0  0.38 0.02 0  0.4 0.02 0  0.42 0.02 0  0.44 0.02 0  0.46 0.02 0  0.48 0.02 0  0.5 0.02 0  0.52 0.02 0  0.54 0.02 0  0.5600000000000001 0.02 0  0.58 0.02 0  0.6 0.02 0  0.62 0.02 0  0.64 0.02 0  0.66 0.02 0  0.68 0.02 0  0.7 0.02 0  0.72 0.02 0  0.74 0.02 0  0.76 0.02 0  0.78 0.02 0  0.8 0.02 0  0.82 0.02 0  0.84 0.02 0  0.86 0.02 0  0.88 0.02 0  0.9 0.02 0  0.92 0.02 0  0.9399999999999999 0.02 0  0.96 0.02 0  0.98 0.02 0  1 0.02 0  1.02 0.02 0  1.04 0.02 0  1.06 0.02 0  1.08 0.02 0  1.1 0.02 0  1.12 0.02 0  1.14 0.02 0  1.16 0.02 0  1.18 0.02 0  1.2 0.02 0  1.22 0.02 0  1.24 0.02 0  1.26 0.02 0  1.28 0.02 0  1.3 0.02 0  1.32 0.02 0  1.34 0.02 0  1.36 0.02 0  1.38 0.02 0  1.4 0.02 0  1.42 0.02 0  1.44 0.02 0  1.46 0.02 0  1.48 0.02 0  1.5 0.02 0  1.52 0.02 0  1.54 0.02 0  1.56 0.02 0  1.58 0.02 0  1.6 0.02 0  1.62 0.02 0  1.64 0.02 0  1.66 0.02 0  1.68 0.02 0  1.7 0.02 0  1.72 0.02 0  1.74 0.02 0  1.76 0.02 0  1.78 0.02 0  1.8 0.02 0  1.82 0.02 0  1.84 0.02 0  1.86 0.02 0  1.88 0.02 0  1.9 0.02 0  1.92 0.02 0  1.94 0.02 0  1.96 0.02 0  1.98 0.02 0  2 0.02 0  0 0.04 0  0.02 0.04 0  0.04 0.04 0  0.06 0.04 0  0.08 0.04 0  0.1 0.04 0  0.12 0.04 0  0.14 0.04 0  0.16 0.04 0  0.18 0.04 0  0.2 0.04 0  0.22 0.04 0  0.24 0.04 0  0.26 0.04 0  0.28 0.04 0  0.3 0.04 0  0.32 0.04 0  0.34 0.04 0  0.36 0.04 0  0.38 0.04 0  0.4 0.04 0  0.42 0.04 0  0.44 0.04 0  0.46 0.04 0  0.48 0.04 0  0.5 0.04 0  0.52 0.04 0  0.54 0.04 0  0.5600000000000001 0.04 0  0.58 0.04 0  0.6 0.04 0  0.62 0.04 0  0.64 0.04 0  0.66 0.04 0  0.68 0.04 0  0.7 0.04 0  0.72 0.04 0  0.74 0.04 0  0.76 0.04 0  0.78 0.04 0  0.8 0.04 0  0.82 0.04 0  0.84 0.04 0  0.86 0.04 0  0.88 0.04 0  0.9 0.04 0  0.92 0.04 0  0.9399999999999999 0.04 0  0.96 0.04 0  0.98 0.04 0  1 0.04 0  1.02 0.04 0  1.04 0.04 0  1.06 0.04 0  1.08 0.04 0  1.1 0.04 0  1.12 0.04 0  1.14 0.04 0  1.16 0.04 0  1.18 0.04 0  1.2 0.04 0  1.22 0.04 0  1.24 0.04 0  1.26 0.04 0  1.28 0.04 0  1.3 0.04 0  1.32 0.04 0  1.34 0.04 0  1.36 0.04 0  1.38 0.04 0  1.4 0.04 0  1.42 0.04 0  1.44 0.04 0  1.46 0.04 0  1.48 0.04 0  1.5 0.04 0  1.52 0.04 0  1.54 0.04 0  1.56 0.04 0  1.58 0.04 0  1.6 0.04 0  1.62 0.04 0  1.64 0.04 0  1.66 0.04 0  1.68 0.04 0  1.7 0.04 0  1.72 0.04 0  1.74 0.04 0  1.76 0.04 0  1.78 0.04 0  1.8 0.04 0  1.82 0.04 0  1.84 0.04 0  1.86 0.04 0  1.88 0.04 0  1.9 0.04 0  1.92 0.04 0  1.94 0.04 0  1.96 0.04 0  1.98 0.04 0  2 0.04 0  0 0.06 0  0.02 0.06 0  0.04 0.06 0  0.06 0.06 0  0.08 0.06 0  0.1 0.06 0  0.12 0.06 0  0.14 0.06 0  0.16 0.06 0  0.18 0.06 0  0.2 0.06 0  0.22 0.06 0  0.24 0.06 0  0.26 0.06 0  0.28 0.06 0  0.3 0.06 0  0.32 0.06 0  0.34 0.06 0  0.36 0.06 0  0.38 0.06 0  0.4 0.06 0  0.42 0.06 0  0.44 0.06 0  0.46 0.06 0  0.48 0.06 0  0.5 0.06 0  0.52 0.06 0  0.54 0.06 0  0.5600000000000001 0.06 0  0.58 0.06 0  0.6 0.06 0  0.62 0.06 0  0.64 0.06 0  0.66 0.06 0  0.68 0.06 0  0.7 0.06 0  0.72 0.06 0  0.74 0.06 0  0.76 0.06 0  0.78 0.06 0  0.8 0.06 0  0.82 0.06 0  0.84 0.06 0  0.86 0.06 0  0.88 0.06 0  0.9 0.06 0  0.92 0.06 0  0.9399999999999999 0.06 0  0.96 0.06 0  0.98 0.06 0  1 0.06 0  1.02 0.06 0  1.04 0.06 0  1.06 0.06 0  1.08 0.06 0  1.1 0.06 0  1.12 0.06 0  1.14 0.06 0  1.16 0.06 0  1.18 0.06 0  1.2 0.06 0  1.22 0.06 0  1.24 0.06 0  1.26 0.06 0  1.28 0.06 0  1.3 0.06 0  1.32 0.06 0  1.34 0.06 0  1.36 0.06 0  1.38 0.06 0  1.4 0.06 0  1.42 0.06 0  1.44 0.06 0  1.46 0.06 0  1.48 0.06 0  1.5 0.06 0  1.52 0.06 0  1.54 0.06 0  1.56 0.06 0  1.58 0.06 0  1.6 0.06 0  1.62 0.06 0  1.64 0.06 0  1.66 0.06 0  1.68 0.06 0  1.7 0.06 0  1.72 0.06 0  1.74 0.06 0  1.76 0.06 0  1.78 0.06 0  1.8 0.06 0  1.82 0.06 0  1.84 0.06 0  1.86 0.06 0  1.88 0.06 0  1.9 0.06 0  1.92 0.06 0  1.94 0.06 0  1.96 0.06 0  1.98 0.06 0  2 0.06 0  0 0.08 0  0.02 0.08 0  0.04 0.08 0  0.06 0.08 0  0.08 0.08 0  0.1 0.08 0  0.12 0.08 0  0.14 0.08 0  0.16 0.08 0  0.18 0.08 0  0.2 0.08 0  0.22 0.08 0  0.24 0.08 0  0.26 0.08 0  0.28 0.08 0  0.3 0.08 0  0.32 0.08 0  0.34 0.08 0  0.36 0.08 0  0.38 0.08 0  0.4 0.08 0  0.42 0.08 0  0.44 0.08 0  0.46 0.08 0  0.48 0.08 0  0.5 0.08 0  0.52 0.08 0  0.54 0.08 0  0.5600000000000001 0.08 0  0.58 0.08 0  0.6 0.08 0  0.62 0.08 0  0.64 0.08 0  0.66 0.08 0  0.68 0.08 0  0.7 0.08 0  0.72 0.08 0  0.74 0.08 0  0.76 0.08 0  0.78 0.08 0  0.8 0.08 0  0.82 0.08 0  0.84 0.08 0  0.86 0.08 0  0.88 0.08 0  0.9 0.08 0  0.92 0.08 0  0.9399999999999999 0.08 0  0.96 0.08 0  0.98 0.08 0  1 0.08 0  1.02 0.08 0  1.04 0.08 0  1.06 0.08 0  1.08 0.08 0  1.1 0.08 0  1.12 0.08 0  1.14 0.08 0  1.16 0.08 0  1.18 0.08 0  1.2 0.08 0  1.22 0.08 0  1.24 0.08 0  1.26 0.08 0  1.28 0.08 0  1.3 0.08 0  1.32 0.08 0  1.34 0.08 0  1.36 0.08 0  1.38 0.08 0  1.4 0.08 0  1.42 0.08 0  1.44 0.08 0  1.46 0.08 0  1.48 0.08 0  1.5 0.08 0  1.52 0.08 0  1.54 0.08 0  1.56 0.08 0  1.58 0.08 0  1.6 0.08 0  1.62 0.08 0  1.64 0.08 0  1.66 0.08 0  1.68 0.08 0  1.7 0.08 0  1.72 0.08 0  1.74 0.08 0  1.76 0.08 0  1.78 0.08 0  1.8 0.08 0  1.82 0.08 0  1.84 0.08 0  1.86 0.08 0  1.88 0.08 0  1.9 0.08 0  1.92 0.08 0  1.94 0.08 0  1.96 0.08 0  1.98 0.08 0  2 0.08 0  0 0.1 0  0.02 0.1 0  0.04 0.1 0  0.06 0.1 0  0.08 0.1 0  0.1 0.1 0  0.12 0.1 0  0.14 0.1 0  0.16 0.1 0  0.18 0.1 0  0.2 0.1 0  0.22 0.1 0  0.24 0.1 0  0.26 0.1 0  0.28 0.1 0  0.3 0.1 0  0.32 0.1 0  0.34 0.1 0  0.36 0.1 0  0.38 0.1 0  0.4 0.1 0  0.42 0.1 0  0.44 0.1 0  0.46 0.1 0  0.48 0.1 0  0.5 0.1 0  0.52 0.1 0  0.54 0.1 0  0.5600000000000001 0.1 0  0.58 0.1 0  0.6 0.1 0  0.62 0.1 0  0.64 0.1 0  0.66 0.1 0  0.68 0.1 0  0.7 0.1 0  0.72 0.1 0  0.74 0.1 0  0.76 0.1 0  0.78 0.1 0  0.8 0.1 0  0.82 0.1 0  0.84 0.1 0  0.86 0.1 0  0.88 0.1 0  0.9 0.1 0  0.92 0.1 0  0.9399999999999999 0.1 0  0.96 0.1 0  0.98 0.1 0  1 0.1 0  1.02 0.1 0  1.04 0.1 0  1.06 0.1 0  1.08 0.1 0  1.1 0.1 0  1.12 0.1 0  1.14 0.1 0  1.16 0.1 0  1.18 0.1 0  1.2 0.1 0  1.22 0.1 0  1.24 0.1 0  1.26 0.1 0  1.28 0.1 0  1.3 0.1 0  1.32 0.1 0  1.34 0.1 0  1.36 0.1 0  1.38 0.1 0  1.4 0.1 0  1.42 0.1 0  1.44 0.1 0  1.46 0.1 0  1.48 0.1 0  1.5 0.1 0  1.52 0.1 0  1.54 0.1 0  1.56 0.1 0  1.58 0.1 0  1.6 0.1 0  1.62 0.1 0  1.64 0.1 0  1.66 0.1 0  1.68 0.1 0  1.7 0.1 0  1.72 0.1 0  1.74 0.1 0  1.76 0.1 0  1.78 0.1 0  1.8 0.1 0  1.82 0.1 0  1.84 0.1 0  1.86 0.1 0  1.88 0.1 0  1.9 0.1 0  1.92 0.1 0  1.94 0.1 0  1.96 0.1 0  1.98 0.1 0  2 0.1 0  0 0.12 0  0.02 0.12 0  0.04 0.12 0  0.06 0.12 0  0.08 0.12 0  0.1 0.12 0  0.12 0.12 0  0.14 0.12 0  0.16 0.12 0  0.18 0.12 0  0.2 0.12 0  0.22 0.12 0  0.24 0.12 0  0.26 0.12 0  0.28 0.12 0  0.3 0.12 0  0.32 0.12 0  0.34 0.12 0  0.36 0.12 0  0.38 0.12 0  0.4 0.12 0  0.42 0.12 0  0.44 0.12 0  0.46 0.12 0  0.48 0.12 0  0.5 0.12 0  0.52 0.12 0  0.54 0.12 0  0.5600000000000001 0.12 0  0.58 0.12 0  0.6 0.12 0  0.62 0.12 0  0.64 0.12 0  0.66 0.12 0  0.68 0.12 0  0.7 0.12 0  0.72 0.12 0  0.74 0.12 0  0.76 0.12 0  0.78 0.12 0  0.8 0.12 0  0.82 0.12 0  0.84 0.12 0  0.86 0.12 0  0.88 0.12 0  0.9 0.12 0  0.92 0.12 0  0.9399999999999999 0.12 0  0.96 0.12 0  0.98 0.12 0  1 0.12 0  1.02 0.12 0  1.04 0.12 0  1.06 0.12 0  1.08 0.12 0  1.1 0.12 0  1.12 0.12 0  1.14 0.12 0  1.16 0.12 0  1.18 0.12 0  1.2 0.12 0  1.22 0.12 0  1.24 0.12 0  1.26 0.12 0  1.28 0.12 0  1.3 0.12 0  1.32 0.12 0  1.34 0.12 0  1.36 0.12 0  1.38 0.12 0  1.4 0.12 0  1.42 0.12 0  1.44 0.12 0  1.46 0.12 0  1.48 0.12 0  1.5 0.12 0  1.52 0.12 0  1.54 0.12 0  1.56 0.12 0  1.58 0.12 0  1.6 0.12 0  1.62 0.12 0  1.64 0.12 0  1.66 0.12 0  1.68 0.12 0  1.7 0.12 0  1.72 0.12 0  1.74 0.12 0  1.76 0.12 0  1.78 0.12 0  1.8 0.12 0  1.82 0.12 0  1.84 0.12 0  1.86 0.12 0  1.88 0.12 0  1.9 0.12 0  1.92 0.12 0  1.94 0.12 0  1.96 0.12 0  1.98 0.12 0  2 0.12 0  0 0.14 0  0.02 0.14 0  0.04 0.14 0  0.06 0.14 0  0.08 0.14 0  0.1 0.14 0  0.12 0.14 0  0.14 0.14 0  0.16 0.14 0  0.18 0.14 0  0.2 0.14 0  0.22 0.14 0  0.24 0.14 0  0.26 0.14 0  0.28 0.14 0  0.3 0.14 0  0.32 0.14 0  0.34 0.14 0  0.36 0.14 0  0.38 0.14 0  0.4 0.14 0  0.42 0.14 0  0.44 0.14 0  0.46 0.14 0  0.48 0.14 0  0.5 0.14 0  0.52 0.14 0  0.54 0.14 0  0.5600000000000001 0.14 0  0.58 0.14 0  0.6 0.14 0  0.62 0.14 0  0.64 0.14 0  0.66 0.14 0  0.68 0.14 0  0.7 0.14 0  0.72 0.14 0  0.74 0.14 0  0.76 0.14 0  0.78 0.14 0  0.8 0.14 0  0.82 0.14 0  0.84 0.14 0  0.86 0.14 0  0.88 0.14 0  0.9 0.14 0  0.92 0.14 0  0.9399999999999999 0.14 0  0.96 0.14 0  0.98 0.14 0  1 0.14 0  1.02 0.14 0  1.04 0.14 0  1.06 0.14 0  1.08 0.14 0  1.1 0.14 0  1.12 0.14 0  1.14 0.14 0  1.16 0.14 0  1.18 0.14 0  1.2 0.14 0  1.22 0.14 0  1.24 0.14 0  1.26 0.14 0  1.28 0.14 0  1.3 0.14 0  1.32 0.14 0  1.34 0.14 0  1.36 0.14 0  1.38 0.14 0  1.4 0.14 0  1.42 0.14 0  1.44 0.14 0  1.46 0.14 0  1.48 0.14 0  1
[...]
<PointData  Scalars="sols[i]"> 
<DataArray  type="Float64"  Name="sols[i]"  format="ascii">1.7067233372030418e-03  1.1384696716232705e-03  1.1384696716232705e-03  1.1384696716232700e-03  1.1384696716232703e-03  1.1384696716232711e-03  1.1384696716232705e-03  1.1384696716232718e-03  1.1384696716232733e-03  1.1384696716232742e-03  1.1384696716232781e-03  1.1384696716232848e-03  1.1384696716232972e-03  1.1384696716233236e-03  1.1384696716233824e-03  1.1384696716235012e-03  1.1384696716237553e-03  1.1384696716243005e-03  1.1384696716254554e-03  1.1384696716279085e-03  1.1384696716331025e-03  1.1384696716440390e-03  1.1384696716669608e-03  1.1384696717147221e-03  1.1384696718135586e-03  1.1384696720165566e-03  1.1384696724299355e-03  1.1384696732636371e-03  1.1384696749268091e-03  1.1384696782039271e-03  1.1384696845710010e-03  1.1384696967442767e-03  1.1384697195929532e-03  1.1384697615755145e-03  1.1384698368344399e-03  1.1384699679232136e-03  1.1384701887194029e-03  1.1384705462971184e-03  1.1384710995301492e-03  1.1384719118014257e-03  1.1384730374297707e-03  1.1384745089581374e-03  1.1384763442070080e-03  1.1384785927444510e-03  1.1384813992367368e-03  1.1384849874857275e-03  1.1384895059586332e-03  1.1384948832335114e-03  1.1385008909671241e-03  1.1385073610226887e-03  1.1385142548885599e-03  1.1385211446120163e-03  1.1385267275759031e-03  1.1385295160888610e-03  1.1385286683206215e-03  1.1385242638411619e-03  1.1385171872326922e-03  1.1385086397967599e-03  1.1384998125557589e-03  1.1384916974981495e-03  1.1384849289824228e-03  1.1384797356597874e-03  1.1384760254446883e-03  1.1384735308426791e-03  1.1384719376431424e-03  1.1384709635201870e-03  1.1384703895488584e-03  1.1384700618421552e-03  1.1384698797081772e-03  1.1384697807897517e-03  1.1384697281203423e-03  1.1384697005489026e-03  1.1384696863226858e-03  1.1384696790693242e-03  1.1384696754047573e-03  1.1384696735636335e-03  1.1384696726391872e-03  1.1384696721719501e-03  1.1384696719318587e-03  1.1384696718048668e-03  1.1384696717348505e-03  1.1384696716942714e-03  1.1384696716695124e-03  1.1384696716537472e-03  1.1384696716434089e-03  1.1384696716365199e-03  1.1384696716319101e-03  1.1384696716288381e-03  1.1384696716268111e-03  1.1384696716254905e-03  1.1384696716246424e-03  1.1384696716241066e-03  1.1384696716237727e-03  1.1384696716235764e-03  1.1384696716234483e-03  1.1384696716233707e-03  1.1384696716233277e-03  1.1384696716233030e-03  1.1384696716232896e-03  1.1384696716232833e-03  3.4074833803208644e-03  1.1384696716232705e-03  5.6955698689597177e-04  5.6955698689597177e-04  5.6955698689597177e-04  5.6955698689597177e-04  5.6955698689597210e-04  5.6955698689597210e-04  5.6955698689597231e-04  5.6955698689597329e-04  5.6955698689597361e-04  5.6955698689597524e-04  5.6955698689597882e-04  5.6955698689598467e-04  5.6955698689599747e-04  5.6955698689602598e-04  5.6955698689608485e-04  5.6955698689620975e-04  5.6955698689647907e-04  5.6955698689705294e-04  5.6955698689827537e-04  5.6955698690087670e-04  5.6955698690638434e-04  5.6955698691799582e-04  5.6955698694235047e-04  5.6955698699312084e-04  5.6955698709823749e-04  5.6955698731419734e-04  5.6955698775400460e-04  5.6955698864082831e-04  5.6955699040892418e-04  5.6955699388890014e-04  5.6955700063766651e-04  5.6955701350421841e-04  5.6955703755322935e-04  5.6955708147497254e-04  5.6955715953652998e-04  5.6955729387502278e-04  5.6955751637209075e-04  5.6955786845286371e-04  5.6955839635212263e-04  5.6955914021124374e-04  5.6956012075663840e-04  5.6956133907348370e-04  5.6956281305629462e-04  5.6956464270962646e-04  5.6956701433642884e-04  5.6957006406213194e-04  5.6957373331789727e-04  5.6957782107994691e-04  5.6958220412880642e-04  5.6958698381067525e-04  5.6959199762752165e-04  5.6959622280690380e-04  5.6959844745871184e-04  5.6959800390767523e-04  5.6959494030203771e-04  5.6958994503872903e-04  5.6958390275689671e-04  5.6957767087889198e-04  5.6957197046348003e-04  5.6956725832251040e-04  5.6956368532872360e-04  5.6956116662939171e-04  5.6955949646542376e-04  5.6955844424082193e-04  5.6955780917750814e-04  5.6955743948502795e-04  5.6955723074457898e-04  5.6955711589908411e-04  5.6955705409457132e-04  5.6955702145698153e-04  5.6955700449760720e-04  5.6955699580417938e-04  5.6955699139699448e-04  5.6955698918091234e-04  5.6955698807139438e-04  5.6955698751522685e-04  5.6955698723384852e-04  5.6955698708857714e-04  5.6955698701102026e-04  5.6955698696766670e-04  5.6955698694211845e-04  5.6955698692627359e-04  5.6955698691603970e-04  5.6955698690926084e-04  5.6955698690471564e-04  5.6955698690166557e-04  5.6955698689963247e-04  5.6955698689829261e-04  5.6955698689742200e-04  5.6955698689686483e-04  5.6955698689651376e-04  5.6955698689629616e-04  5.6955698689616638e-04  5.6955698689608648e-04  5.6955698689603595e-04  5.6955698689600831e-04  5.6955698689599237e-04  5.6955698689598380e-04  5.6955698689597958e-04  1.1384696716232831e-03  1.1384696716232705e-03  5.6955698689597177e-04  5.6955698689597199e-04  5.6955698689597188e-04  5.6955698689597188e-04  5.6955698689597220e-04  5.6955698689597210e-04  5.6955698689597242e-04  5.6955698689597318e-04  5.6955698689597383e-04  5.6955698689597567e-04  5.6955698689597979e-04  5.6955698689598695e-04  5.6955698689600267e-04  5.6955698689603747e-04  5.6955698689611011e-04  5.6955698689626570e-04  5.6955698689660245e-04  5.6955698689732529e-04  5.6955698689887841e-04  5.6955698690221298e-04  5.6955698690934627e-04  5.6955698692455698e-04  5.6955698695686230e-04  5.6955698702513288e-04  5.6955698716860189e-04  5.6955698746815752e-04  5.6955698808899835e-04  5.6955698936486004e-04  5.6955699196144271e-04  5.6955699718697669e-04  5.6955700756727953e-04  5.6955702787635915e-04  5.6955706690659598e-04  5.6955714033867823e-04  5.6955727502162911e-04  5.6955751455159127e-04  5.6955792482017134e-04  5.6955859574164521e-04  5.6955963199915199e-04  5.6956112468650559e-04  5.6956310688507472e-04  5.6956553409114508e-04  5.6956838071214096e-04  5.6957187061160164e-04  5.6957653602803763e-04  5.6958276197916467e-04  5.6959029494104579e-04  5.6959846437373948e-04  5.6960697998138397e-04  5.6961671471745720e-04  5.6962789890938905e-04  5.6963756150966982e-04  5.6964239293057120e-04  5.6964095271377143e-04  5.6963361360270733e-04  5.6962236033579114e-04  5.6960924058759726e-04  5.6959607955701724e-04  5.6958441342654239e-04  5.6957512980337205e-04  5.6956838449052027e-04  5.6956383676361796e-04  5.6956095192755077e-04  5.6955921051510565e-04  5.6955820110262377e-04  5.6955763519083520e-04  5.6955732656506269e-04  5.6955716208420310e-04  5.6955707610031956e-04  5.6955703187419257e-04  5.6955700943201360e-04  5.6955699816827810e-04  5.6955699256101236e-04  5.6955698978218951e-04  5.6955698840389522e-04  5.6955698771409544e-04  5.6955698736165677e-04  5.6955698717509051e-04  5.6955698707126167e-04  5.6955698700998213e-04  5.6955698697170611e-04  5.6955698694670332e-04  5.6955698692990958e-04  5.6955698691850030e-04  5.6955698691075031e-04  5.6955698690553031e-04  5.6955698690206032e-04  5.6955698689978979e-04  5.6955698689832904e-04  5.6955698689740509e-04  5.6955698689683046e-04  5.6955698689647896e-04  5.6955698689627047e-04  5.6955698689614492e-04  5.6955698689606837e-04  5.6955698689602609e-04  5.6955698689600224e-04  5.6955698689598933e-04  5.6955698689598315e-04  1.1384696716232883e-03  1.1384696716232700e-03  5.6955698689597177e-04  5.6955698689597188e-04  5.6955698689597188e-04  5.6955698689597199e-04  5.6955698689597220e-04  5.6955698689597210e-04  5.6955698689597253e-04  5.6955698689597361e-04  5.6955698689597426e-04  5.6955698689597665e-04  5.6955698689598185e-04  5.6955698689599139e-04  5.6955698689601189e-04  5.6955698689605731e-04  5.6955698689615327e-04  5.6955698689635926e-04  5.6955698689680704e-04  5.6955698689777556e-04  5.6955698689987403e-04  5.6955698690442334e-04  5.6955698691426638e-04  5.6955698693552075e-04  5.6955698698128840e-04  5.6955698707947700e-04  5.6955698728920800e-04  5.6955698773487710e-04  5.6955698867617026e-04  5.6955699065027831e-04  5.6955699475654887e-04  5.6955700321630889e-04  5.6955702044994333e-04  5.6955705509247805e-04  5.6955712363161433e-04  5.6955725666087435e-04  5.6955750890174317e-04  5.6955797360182389e-04  5.6955879942567145e-04  5.6956020150385114e-04  5.6956244641801130e-04  5.6956577869138737e-04  5.6957027144668667e-04  5.6957569785049430e-04  5.6958177076275537e-04  5.6958899035374367e-04  5.6959901413829454e-04  5.6961295185844216e-04  5.6962948446337587e-04  5.6964618601967724e-04  5.6966238657587816e-04  5.6968274071759399e-04  5.6971118262873091e-04  5.6973812381916225e-04  5.6975199053838847e-04  5.6974860141954537e-04  5.6972972088326556e-04  5.6970199519787966e-04  5.6967058045691256e-04  5.6963970073345318e-04  5.6961310820343846e-04  5.6959274678478630e-04  5.6957858982756792e-04  5.6956947266436383e-04  5.6956394537661578e-04  5.6956075086165279e-04  5.6955897359745370e-04  5.6955801463943101e-04  5.6955750990022203e-04  5.6955724956639093e-04  5.6955711750757859e-04  5.6955705142603535e-04  5.6955701871981080e-04  5.6955700266459494e-04  5.6955699482048340e-04  5.6955699098653039e-04  5.6955698909653702e-04  5.6955698814508933e-04  5.6955698764770551e-04  5.6955698737287187e-04  5.6955698721051216e-04  5.6955698710813691e-04  5.6955698704023300e-04  5.6955698699380128e-04  5.6955698696167757e-04  5.6955698693950205e-04  5.6955698692435521e-04  5.6955698691416891e-04  5.6955698690744035e-04  5.6955698690307893e-04  5.6955698690030468e-04  5.6955698689857212e-04  5.6955698689750917e-04  5.6955698689686775e-04  5.6955698689649002e-04  5.6955698689626732e-04  5.6955698689613592e-04  5.6955698689606295e-04  5.6955698689602240e-04  5.6955698689600072e-04  5.6955698689599031e-04  1.1384696716232989e-03  1.1384696716232703e-03  5.6955698689597177e-04  5.6955698689597188e-04  5.6955698689597177e-04  5.6955698689597188e-04  5.6955698689597220e-04  5.6955698689597220e-04  5.6955698689597264e-04  5.6955698689597405e-04  5.6955698689597513e-04  5.6955698689597838e-04  5.6955698689598543e-04  5.6955698689599866e-04  5.6955698689602706e-04  5.6955698689608908e-04  5.6955698689622027e-04  5.6955698689650227e-04  5.6955698689711571e-04  5.6955698689844863e-04  5.6955698690135527e-04  5.6955698690770620e-04  5.6955698692158117e-04  5.6955698695187757e-04  5.6955698701793281e-04  5.6955698716160488e-04  5.6955698747310798e-04  5.6955698814582084e-04  5.6955698959162179e-04  5.6955699268123044e-04  5.6955699923908062e-04  5.6955701304766727e-04  5.6955704184942643e-04  5.6955710124686294e-04  5.6955722207842634e-04  5.6955746381977441e-04  5.6955793758958740e-04  5.6955884236639480e-04  5.6956051402417033e-04  5.6956347211448047e-04  5.6956841359584074e-04  5.6957604293434989e-04  5.6958659937724236e-04  5.6959921970452861e-04  5.6961237074125458e-04  5.6962686404000583e-04  5.6964761468785254e-04  5.6967692385878101e-04  5.6970713451673111e-04  8.5448698045200984e-04  1.1392437797746681e-03  1.1393643601974816e-03  1.1396220169965221e-03  8.5493067468150657e-04  5.6998822577332354e-04  5.6999591862534225e-04  5.6995278128419129e-04  5.6988515357041963e-04  5.6980908470453040e-04  5.6973515670235935e-04  5.6967341489200804e-04  5.6962818016628063e-04  5.6959824025393192e-04  5.6957988789358696e-04  5.6956927387489923e-04  5.6956340262735478e-04  5.6956026509642277e-04  5.6955863324151148e-04  5.6955780253874916e-04  5.6955738686978257e-04  5.6955718172606946e-04  5.6955708158660243e-04  5.6955703310750247e-04  5.6955700975787956e-04  5.6955699851699666e-04  5.6955699306636995e-04  5.6955699037073522e-04  5.6955698898591544e-04  5.6955698823103361e-04  5.6955698778748476e-04  5.6955698750646140e-04  5.6955698731757343e-04  5.6955698718610449e-04  5.6955698709342255e-04  5.6955698702828325e-04  5.6955698698308319e-04  5.6955698695227157e-04  5.6955698693168767e-04  5.6955698691822057e-04  5.6955698690958989e-04  5.6955698690416845e-04  5.6955698690082726e-04  5.6955698689880490e-04  5.6955698689760143e-04  5.6955698689689974e-04  5.6955698689649327e-04  5.6955698689625887e-04  5.6955698689612941e-04  5.6955698689605818e-04  5.6955698689602034e-04  5.6955698689600267e-04  1.1384696716233178e-03  1.1384696716232709e-03  5.6955698689597210e-04  5.6955698689597210e-04  5.6955698689597220e-04  5.6955698689597220e-04  5.6955698689597253e-04  5.6955698689597275e-04  5.6955698689597340e-04  5.6955698689597502e-04  5.6955698689597697e-04  5.6955698689598185e-04  5.6955698689599183e-04  5.6955698689601113e-04  5.6955698689605178e-04  5.6955698689613885e-04  5.6955698689632208e-04  5.6955698689671423e-04  5.6955698689756414e-04  5.6955698689941108e-04  5.6955698690344897e-04  5.6955698691231427e-04  5.6955698693181734e-04  5.6955698697477473e-04  5.6955698706939988e-04  5.6955698727762861e-04  5.6955698773499832e-04  5.6955698873689686e-04  5.6955699092392119e-04  5.6955699567720597e-04  5.6955700595374156e-04  5.6955702803157201e-04  5.6955707510502154e-04  5.6955717456035689e-04  5.6955738236244373e-04  5.6955781063060544e-04  5.6955867823439536e-04  5.6956039774427988e-04  5.6956370947593919e-04  5.6956984738739638e-04  5.6958063230290402e-04  5.6959817113277520e-04  5.6962349219486831e-04  5.6965376100290310e-04  5.6968201069726649e-04  5.6970696012697490e-04  5.6974078319529530e-04  8.5461813017699551e-04  1.1395509848694599e-03  1.7091873995877843e-03  5.8233289569926849e-01  5.8717316765938332e-01  6.1349074328350217e-01  6.5979655274796012e-01  1.7136217894797774e-03  8.5611330243380471e-04  5.7042960320813395e-04  5.7029533770239010e-04  5.7011630463646510e-04  5.6993863624913636e-04  5.6979534000656685e-04  5.6969594073589679e-04  5.6963386956414102e-04  5.6959787460356484e-04  5.6957808516977103e-04  5.6956762415674711e-04  5.6956225486937920e-04  5.6955956025179274e-04  5.6955823123687867e-04  5.6955758458404040e-04  5.6955727325840781e-04  5.6955712456826905e-04  5.6955705392353723e-04  5.6955702040184541e-04  5.6955700440779904e-04  5.6955699664280467e-04  5.6955699273315407e-04  5.6955699064066914e-04  5.6955698942457583e-04  5.6955698865368868e-04  5.6955698812966775e-04  5.6955698775838001e-04  5.6955698749135532e-04  5.6955698730001380e-04  5.6955698716488850e-04  5.6955698707137183e-04  5.6955698700809085e-04  5.6955698696624607e-04  5.6955698693919544e-04  5.6955698692208467e-04  5.6955698691148182e-04  5.6955698690503798e-04  5.6955698690119210e-04  5.6955698689893555e-04  5.6955698689763526e-04  5.6955698689689378e-04  5.6955698689647462e-04  5.6955698689624456e-04  5.6955698689611976e-04  5.6955698689605428e-04  5.6955698689602370e-04  1.1384696716233501e-03  1.1384696716232705e-03  5.6955698689597188e-04  5.6955698689597188e-04  5.6955698689597199e-04  5.6955698689597210e-04  5.6955698689597264e-04  5.6955698689597285e-04  5.6955698689597394e-04  5.6955698689597622e-04  5.6955698689597958e-04  5.6955698689598684e-04  5.6955698689600191e-04  5.6955698689603108e-04  5.6955698689609092e-04  5.6955698689621637e-04  5.6955698689647701e-04  5.6955698689702800e-04  5.6955698689821076e-04  5.6955698690076730e-04  5.6955698690634292e-04  5.6955698691859061e-04  5.6955698694562378e-04  5.6955698700550243e-04  5.6955698713840740e-04  5.6955698743361863e-04  5.6955698808913626e-04  5.6955698954286359e-04  5.6955699275991543e-04  5.6955699985837245e-04  5.6955701546296028e-04  5.6955704960956412e-04  5.6955712391421412e-04  5.6955728450836006e-04  5.6955762871396364e-04  5.6955835884087190e-04  5.6955988736774143e-04  5.6956303339434993e-04  5.6956936368485493e-04  5.6958171018571763e-04  5.6960473204752636e-04  5.6964478987555885e-04  5.6970658980376866e-04  5.6978203928453723e-04  5.6984233692950739e-04  5.6986637833648555e-04  8.5483567990111097e-04  1.7100983913779391e-03  6.0535688703953272e-01  5.8323264264916819e-01  5.7146187709108565e-01  5.6140195026740336e-01  5.8640502606113543e-01  6.2138579265696525e-01  7.1948821930108520e-01  8.0033890760078708e-01  1.1449899663964402e-03  5.7113280295721907e-04  5.7078435098901136e-04  5.7036248831765556e-04  5.7003252766061284e-04  5.6981904354034272e-04  5.6969471455971179e-04  5.6962697776989039e-04  5.6959169916188804e-04  5.6957389754921733e-04  5.6956511758263987e-04  5.6956085943451128e-04  5.6955882014950285e-04  5.6955785275979479e-04  5.6955739709574219e-04  5.6955718348582370e-04  5.6955708350967535e-04  5.6955703653283247e-04  5.6955701413608059e-04  5.6955700309677213e-04  5.6955699731522881e-04  5.6955699400736950e-04  5.6955699191725930e-04  5.6955699048217602e-04  5.6955698944617032e-04  5.6955698868452632e-04  5.6955698812681120e-04  5.6955698772514075e-04  5.6955698744235849e-04  5.6955698724822060e-04  5.6955698711829382e-04  5.6955698703347300e-04  5.6955698697939441e-04  5.6955698694567637e-04  5.6955698692508715e-04  5.6955698691275695e-04  5.6955698690550527e-04  5.6955698690131157e-04  5.6955698689892720e-04  5.6955698689758756e-04  5.6955698689684304e-04  5.6955698689643852e-04  5.6955698689622168e-04  5.6955698689610925e-04  5.6955698689605710e-04  1.1384696716234015e-03  1.1384696716232711e-03  5.6955698689597220e-04  5.6955698689597210e-04  5.6955698689597220e-04  5.6955698689597231e-04  5.6955698689597296e-04  5.6955698689597361e-04  5.6955698689597535e-04  5.6955698689597882e-04  5.6955698689598446e-04  5.6955698689599627e-04  5.6955698689601969e-04  5.6955698689606501e-04  5.6955698689615619e-04  5.6955698689634181e-04  5.6955698689672074e-04  5.6955698689750689e-04  5.6955698689916529e-04  5.6955698690270488e-04  5.6955698691035556e-04  5.6955698692707233e-04  5.6955698696390907e-04  5.6955698704562496e-04  5.6955698722776485e-04  5.6955698763497915e-04  5.6955698854687276e-04  5.6955699058977149e-04  5.6955699516378550e-04  5.6955700539039120e-04  5.6955702820560880e-04  5.6955707895917605e-04  5.6955719145378994e-04  5.6955743967979739e-04  5.6955798437642374e-04  5.6955917139482387e-04  5.6956173554571050e-04  5.6956721150741043e-04  5.6957872740839345e-04  5.6960242937391750e-04  5.6964968395879952e-04  5.6973916310764955e-04  5.6989089189104353e-04  5.7008565184609784e-04  5.7021268668473615e-04  8.5552184415383747e-04  1.7108264559659902e-03  6.0762914402470214e-01  6.0331516037784472e-01  4.9999999965448672e-01  4.9999999971885828e-01  4.9999999990259608e-01  4.9999999988767607e-01  4.9999999964359770e-01  4.9999999939970752e-01  7.3122406771690918e-01  8.5679429358492509e-01  1.1500036544688410e-03  5.7210252775953551e-04  5.7120668761322633e-04  5.7046811810195343e-04  5.7002739433282006e-04  5.6979085383135537e-04  5.6967045687440656e-04  5.6961114063971605e-04  5.6958254042546578e-04  5.6956895294847122e-04  5.6956256459313496e-04  5.6955958328639865e-04  5.6955819937184538e-04  5.6955755923536033e-04  5.6955726352455238e-04  5.6955712653272250e-04  5.6955706232901841e-04  5.6955703135368565e-04  5.6955701551918549e-04  5.6955700664144482e-04  5.6955700107301369e-04  5.6955699721614227e-04  5.6955699437518899e-04  5.6955699223429194e-04  5.6955699062743342e-04  5.6955698944391605e-04  5.6955698859433176e-04  5.6955698800138766e-04  5.6955698759911168e-04  5.6955698733355306e-04  5.6955698716272584e-04  5.6955698705546745e-04  5.6955698698962364e-04  5.6955698695003931e-04  5.6955698692669795e-04  5.6955698691317871e-04  5.6955698690547686e-04  5.6955698690115914e-04  5.6955698689876955e-04  5.6955698689746233e-04  5.6955698689676031e-04  5.6955698689638875e-04  5.6955698689619826e-04  5.6955698689611066e-04  1.1384696716234821e-03  1.1384696716232720e-03  5.6955698689597264e-04  5.6955698689597264e-04  5.6955698689597285e-04  5.6955698689597307e-04  5.6955698689597416e-04  5.6955698689597524e-04  5.6955698689597795e-04  5.6955698689598370e-04  5.6955698689599335e-04  5.6955698689601286e-04  5.6955698689605124e-04  5.6955698689612443e-04  5.6955698689626808e-04  5.6955698689655334e-04  5.6955698689712157e-04  5.6955698689827136e-04  5.6955698690063828e-04  5.6955698690558366e-04  5.6955698691608708e-04  5.6955698693873617e-04  5.69556986988