<?xml version="1.0"?>
<VTKFile type="UnstructuredGrid"  version="0.1"  >
<UnstructuredGrid>
<Piece  NumberOfPoints="5151" NumberOfCells="10000">
<Points>
<DataArray  type="Float64"  NumberOfComponents="3"  format="ascii">0 0 0  0.02 0 0  0.04 0 0  0.06 0 0  0.08 0 0  0.1 0 0  0.12 0 0  0.14 0 0  0.16 0 0  0.18 0 0  0.2 0 0  0.22 0 0  0.24 0 0  0.26 0 0  0.28 0 0  0.3 0 0  0.32 0 0  0.34 0 0  0.36 0 0  0.38 0 0  0.4 0 0  0.42 0 0  0.44 0 0  0.46 0 0  0.48 0 0  0.5 0 0  0.52 0 0  0.54 0 0  0.5600000000000001 0 0  0.58 0 0  0.6 0 0  0.62 0 0  0.64 0 0  0.66 0 0  0.68 0 0  0.7 0 0  0.72 0 0  0.74 0 0  0.76 0 0  0.78 0 0  0.8 0 0  0.82 0 0  0.84 0 0  0.86 0 0  0.88 0 0  0.9 0 0  0.92 0 0  0.9399999999999999 0 0  0.96 0 0  0.98 0 0  1 0 0  1.02 0 0  1.04 0 0  1.06 0 0  1.08 0 0  1.1 0 0  1.12 0 0  1.14 0 0  1.16 0 0  1.18 0 0  1.2 0 0  1.22 0 0  1.24 0 0  1.26 0 0  1.28 0 0  1.3 0 0  1.32 0 0  1.34 0 0  1.36 0 0  1.38 0 0  1.4 0 0  1.42 0 0  1.44 0 0  1.46 0 0  1.48 0 0  1.5 0 0  1.52 0 0  1.54 0 0  1.56 0 0  1.58 0 0  1.6 0 0  1.62 0 0  1.64 0 0  1.66 0 0  1.68 0 0  1.7 0 0  1.72 0 0  1.74 0 0  1.76 0 0  1.78 0 0  1.8 0 0  1.82 0 0  1.84 0 0  1.86 0 0  1.88 0 0  1.9 0 0  1.92 0 0  1.94 0 0  1.96 0 0  1.98 0 0  2 0 0  0 0.02 0  0.02 0.02 0  0.04 0.02 0  0.06 0.02 0  0.08 0.02 0  0.1 0.02 0  0.12 0.02 0  0.14 0.02 0  0.16 0.02 0  0.18 0.02 0  0.2 0.02 0  0.22 0.02 0  0.24 0.02 0  0.26 0.02 0  0.28 0.02 0  0.3 0.02 0  0.32 0.02 0  0.34 0.02 0  0.36 0.02 0  0.38 0.02 0  0.4 0.02 0  0.42 0.02 0  0.44 0.02 0  0.46 0.02 0  0.48 0.02 0  0.5 0.02 0  0.52 0.02 0  0.54 0.02 0  0.5600000000000001 0.02 0  0.58 0.02 0  0.6 0.02 0  0.62 0.02 0  0.64 0.02 0  0.66 0.02 0  0.68 0.02 0  0.7 0.02 0  0.72 0.02 0  0.74 0.02 0  0.76 0.02 0  0.78 0.02 0  0.8 0.02 0  0.82 0.02 0  0.84 0.02 0  0.86 0.02 0  0.88 0.02 0  0.9 0.02 0  0.92 0.02 0  0.9399999999999999 0.02 0  0.96 0.02 0  0.98 0.02 0  1 0.02 0  1.02 0.02 0  1.04 0.02 0  1.06 0.02 0  1.08 0.02 0  1.1 0.02 0  1.12 0.02 0  1.14 0.02 0  1.16 0.02 0  1.18 0.02 0  1.2 0.02 0  1.22 0.02 0  1.24 0.02 0  1.26 0.02 0  1.28 0.02 0  1.3 0.02 0  1.32 0.02 0  1.34 0.02 0  1.36 0.02 0  1.38 0.02 0  1.4 0.02 0  1.42 0.02 0  1.44 0.02 0  1.46 0.02 0  1.48 0.02 0  1.5 0.02 0  1.52 0.02 0  1.54 0.02 0  1.56 0.02 0  1.58 0.02 0  1.6 0.02 0  1.62 0.02 0  1.64 0.02 0  1.66 0.02 0  1.68 0.02 0  1.7 0.02 0  1.72 0.02 0  1.74 0.02 0  1.76 0.02 0  1.78 0.02 0  1.8 0.02 0  1.82 0.02 0  1.84 0.02 0  1.86 0.02 0  1.88 0.02 0  1.9 0.02 0  1.92 0.02 0  1.94 0.02 0  1.96 0.02 0  1.98 0.02 0  2 0.02 0  0 0.04 0  0.02 0.04 0  0.04 0.04 0  0.06 0.04 0  0.08 0.04 0  0.1 0.04 0  0.12 0.04 0  0.14 0.04 0  0.16 0.04 0  0.18 0.04 0  0.2 0.04 0  0.22 0.04 0  0.24 0.04 0  0.26 0.04 0  0.28 0.04 0  0.3 0.04 0  0.32 0.04 0  0.34 0.04 0  0.36 0.04 0  0.38 0.04 0  0.4 0.04 0  0.42 0.04 0  0.44 0.04 0  0.46 0.04 0  0.48 0.04 0  0.5 0.04 0  0.52 0.04 0  0.54 0.04 0  0.5600000000000001 0.04 0  0.58 0.04 0  0.6 0.04 0  0.62 0.04 0  0.64 0.04 0  0.66 0.04 0  0.68 0.04 0  0.7 0.04 0  0.72 0.04 0  0.74 0.04 0  0.76 0.04 0  0.78 0.04 0  0.8 0.04 0  0.82 0.04 0  0.84 0.04 0  0.86 0.04 0  0.88 0.04 0  0.9 0.04 0  0.92 0.04 0  0.9399999999999999 0.04 0  0.96 0.04 0  0.98 0.04 0  1 0.04 0  1.02 0.04 0  1.04 0.04 0  1.06 0.04 0  1.08 0.04 0  1.1 0.04 0  1.12 0.04 0  1.14 0.04 0  1.16 0.04 0  1.18 0.04 0  1.2 0.04 0  1.22 0.04 0  1.24 0.04 0  1.26 0.04 0  1.28 0.04 0  1.3 0.04 0  1.32 0.04 0  1.34 0.04 0  1.36 0.04 0  1.38 0.04 0  1.4 0.04 0  1.42 0.04 0  1.44 0.04 0  1.46 0.04 0  1.48 0.04 0  1.5 0.04 0  1.52 0.04 0  1.54 0.04 0  1.56 0.04 0  1.58 0.04 0  1.6 0.04 0  1.62 0.04 0  1.64 0.04 0  1.66 0.04 0  1.68 0.04 0  1.7 0.04 0  1.72 0.04 0  1.74 0.04 0  1.76 0.04 0  1.78 0.04 0  1.8 0.04 0  1.82 0.04 0  1.84 0.04 0  1.86 0.04 0  1.88 0.04 0  1.9 0.04 0  1.92 0.04 0  1.94 0.04 0  1.96 0.04 0  1.98 0.04 0  2 0.04 0  0 0.06 0  0.02 0.06 0  0.04 0.06 0  0.06 0.06 0  0.08 0.06 0  0.1 0.06 0  0.12 0.06 0  0.14 0.06 0  0.16 0.06 0  0.18 0.06 0  0.2 0.06 0  0.22 0.06 0  0.24 0.06 0  0.26 0.06 0  0.28 0.06 0  0.3 0.06 0  0.32 0.06 0  0.34 0.06 0  0.36 0.06 0  0.38 0.06 0  0.4 0.06 0  0.42 0.06 0  0.44 0.06 0  0.46 0.06 0  0.48 0.06 0  0.5 0.06 0  0.52 0.06 0  0.54 0.06 0  0.5600000000000001 0.06 0  0.58 0.06 0  0.6 0.06 0  0.62 0.06 0  0.64 0.06 0  0.66 0.06 0  0.68 0.06 0  0.7 0.06 0  0.72 0.06 0  0.74 0.06 0  0.76 0.06 0  0.78 0.06 0  0.8 0.06 0  0.82 0.06 0  0.84 0.06 0  0.86 0.06 0  0.88 0.06 0  0.9 0.06 0  0.92 0.06 0  0.9399999999999999 0.06 0  0.96 0.06 0  0.98 0.06 0  1 0.06 0  1.02 0.06 0  1.04 0.06 0  1.06 0.06 0  1.08 0.06 0  1.1 0.06 0  1.12 0.06 0  1.14 0.06 0  1.16 0.06 0  1.18 0.06 0  1.2 0.06 0  1.22 0.06 0  1.24 0.06 0  1.26 0.06 0  1.28 0.06 0  1.3 0.06 0  1.32 0.06 0  1.34 0.06 0  1.36 0.06 0  1.38 0.06 0  1.4 0.06 0  1.42 0.06 0  1.44 0.06 0  1.46 0.06 0  1.48 0.06 0  1.5 0.06 0  1.52 0.06 0  1.54 0.06 0  1.56 0.06 0  1.58 0.06 0  1.6 0.06 0  1.62 0.06 0  1.64 0.06 0  1.66 0.06 0  1.68 0.06 0  1.7 0.06 0  1.72 0.06 0  1.74 0.06 0  1.76 0.06 0  1.78 0.06 0  1.8 0.06 0  1.82 0.06 0  1.84 0.06 0  1.86 0.06 0  1.88 0.06 0  1.9 0.06 0  1.92 0.06 0  1.94 0.06 0  1.96 0.06 0  1.98 0.06 0  2 0.06 0  0 0.08 0  0.02 0.08 0  0.04 0.08 0  0.06 0.08 0  0.08 0.08 0  0.1 0.08 0  0.12 0.08 0  0.14 0.08 0  0.16 0.08 0  0.18 0.08 0  0.2 0.08 0  0.22 0.08 0  0.24 0.08 0  0.26 0.08 0  0.28 0.08 0  0.3 0.08 0  0.32 0.08 0  0.34 0.08 0  0.36 0.08 0  0.38 0.08 0  0.4 0.08 0  0.42 0.08 0  0.44 0.08 0  0.46 0.08 0  0.48 0.08 0  0.5 0.08 0  0.52 0.08 0  0.54 0.08 0  0.5600000000000001 0.08 0  0.58 0.08 0  0.6 0.08 0  0.62 0.08 0  0.64 0.08 0  0.66 0.08 0  0.68 0.08 0  0.7 0.08 0  0.72 0.08 0  0.74 0.08 0  0.76 0.08 0  0.78 0.08 0  0.8 0.08 0  0.82 0.08 0  0.84 0.08 0  0.86 0.08 0  0.88 0.08 0  0.9 0.08 0  0.92 0.08 0  0.9399999999999999 0.08 0  0.96 0.08 0  0.98 0.08 0  1 0.08 0  1.02 0.08 0  1.04 0.08 0  1.06 0.08 0  1.08 0.08 0  1.1 0.08 0  1.12 0.08 0  1.14 0.08 0  1.16 0.08 0  1.18 0.08 0  1.2 0.08 0  1.22 0.08 0  1.24 0.08 0  1.26 0.08 0  1.28 0.08 0  1.3 0.08 0  1.32 0.08 0  1.34 0.08 0  1.36 0.08 0  1.38 0.08 0  1.4 0.08 0  1.42 0.08 0  1.44 0.08 0  1.46 0.08 0  1.48 0.08 0  1.5 0.08 0  1.52 0.08 0  1.54 0.08 0  1.56 0.08 0  1.58 0.08 0  1.6 0.08 0  1.62 0.08 0  1.64 0.08 0  1.66 0.08 0  1.68 0.08 0  1.7 0.08 0  1.72 0.08 0  1.74 0.08 0  1.76 0.08 0  1.78 0.08 0  1.8 0.08 0  1.82 0.08 0  1.84 0.08 0  1.86 0.08 0  1.88 0.08 0  1.9 0.08 0  1.92 0.08 0  1.94 0.08 0  1.96 0.08 0  1.98 0.08 0  2 0.08 0  0 0.1 0  0.02 0.1 0  0.04 0.1 0  0.06 0.1 0  0.08 0.1 0  0.1 0.1 0  0.12 0.1 0  0.14 0.1 0  0.16 0.1 0  0.18 0.1 0  0.2 0.1 0  0.22 0.1 0  0.24 0.1 0  0.26 0.1 0  0.28 0.1 0  0.3 0.1 0  0.32 0.1 0  0.34 0.1 0  0.36 0.1 0  0.38 0.1 0  0.4 0.1 0  0.42 0.1 0  0.44 0.1 0  0.46 0.1 0  0.48 0.1 0  0.5 0.1 0  0.52 0.1 0  0.54 0.1 0  0.5600000000000001 0.1 0  0.58 0.1 0  0.6 0.1 0  0.62 0.1 0  0.64 0.1 0  0.66 0.1 0  0.68 0.1 0  0.7 0.1 0  0.72 0.1 0  0.74 0.1 0  0.76 0.1 0  0.78 0.1 0  0.8 0.1 0  0.82 0.1 0  0.84 0.1 0  0.86 0.1 0  0.88 0.1 0  0.9 0.1 0  0.92 0.1 0  0.9399999999999999 0.1 0  0.96 0.1 0  0.98 0.1 0  1 0.1 0  1.02 0.1 0  1.04 0.1 0  1.06 0.1 0  1.08 0.1 0  1.1 0.1 0  1.12 0.1 0  1.14 0.1 0  1.16 0.1 0  1.18 0.1 0  1.2 0.1 0  1.22 0.1 0  1.24 0.1 0  1.26 0.1 0  1.28 0.1 0  1.3 0.1 0  1.32 0.1 0  1.34 0.1 0  1.36 0.1 0  1.38 0.1 0  1.4 0.1 0  1.42 0.1 0  1.44 0.1 0  1.46 0.1 0  1.48 0.1 0  1.5 0.1 0  1.52 0.1 0  1.54 0.1 0  1.56 0.1 0  1.58 0.1 0  1.6 0.1 0  1.62 0.1 0  1.64 0.1 0  1.66 0.1 0  1.68 0.1 0  1.7 0.1 0  1.72 0.1 0  1.74 0.1 0  1.76 0.1 0  1.78 0.1 0  1.8 0.1 0  1.82 0.1 0  1.84 0.1 0  1.86 0.1 0  1.88 0.1 0  1.9 0.1 0  1.92 0.1 0  1.94 0.1 0  1.96 0.1 0  1.98 0.1 0  2 0.1 0  0 0.12 0  0.02 0.12 0  0.04 0.12 0  0.06 0.12 0  0.08 0.12 0  0.1 0.12 0  0.12 0.12 0  0.14 0.12 0  0.16 0.12 0  0.18 0.12 0  0.2 0.12 0  0.22 0.12 0  0.24 0.12 0  0.26 0.12 0  0.28 0.12 0  0.3 0.12 0  0.32 0.12 0  0.34 0.12 0  0.36 0.12 0  0.38 0.12 0  0.4 0.12 0  0.42 0.12 0  0.44 0.12 0  0.46 0.12 0  0.48 0.12 0  0.5 0.12 0  0.52 0.12 0  0.54 0.12 0  0.5600000000000001 0.12 0  0.58 0.12 0  0.6 0.12 0  0.62 0.12 0  0.64 0.12 0  0.66 0.12 0  0.68 0.12 0  0.7 0.12 0  0.72 0.12 0  0.74 0.12 0  0.76 0.12 0  0.78 0.12 0  0.8 0.12 0  0.82 0.12 0  0.84 0.12 0  0.86 0.12 0  0.88 0.12 0  0.9 0.12 0  0.92 0.12 0  0.9399999999999999 0.12 0  0.96 0.12 0  0.98 0.12 0  1 0.12 0  1.02 0.12 0  1.04 0.12 0  1.06 0.12 0  1.08 0.12 0  1.1 0.12 0  1.12 0.12 0  1.14 0.12 0  1.16 0.12 0  1.18 0.12 0  1.2 0.12 0  1.22 0.12 0  1.24 0.12 0  1.26 0.12 0  1.28 0.12 0  1.3 0.12 0  1.32 0.12 0  1.34 0.12 0  1.36 0.12 0  1.38 0.12 0  1.4 0.12 0  1.42 0.12 0  1.44 0.12 0  1.46 0.12 0  1.48 0.12 0  1.5 0.12 0  1.52 0.12 0  1.54 0.12 0  1.56 0.12 0  1.58 0.12 0  1.6 0.12 0  1.62 0.12 0  1.64 0.12 0  1.66 0.12 0  1.68 0.12 0  1.7 0.12 0  1.72 0.12 0  1.74 0.12 0  1.76 0.12 0  1.78 0.12 0  1.8 0.12 0  1.82 0.12 0  1.84 0.12 0  1.86 0.12 0  1.88 0.12 0  1.9 0.12 0  1.92 0.12 0  1.94 0.12 0  1.96 0.12 0  1.98 0.12 0  2 0.12 0  0 0.14 0  0.02 0.14 0  0.04 0.14 0  0.06 0.14 0  0.08 0.14 0  0.1 0.14 0  0.12 0.14 0  0.14 0.14 0  0.16 0.14 0  0.18 0.14 0  0.2 0.14 0  0.22 0.14 0  0.24 0.14 0  0.26 0.14 0  0.28 0.14 0  0.3 0.14 0  0.32 0.14 0  0.34 0.14 0  0.36 0.14 0  0.38 0.14 0  0.4 0.14 0  0.42 0.14 0  0.44 0.14 0  0.46 0.14 0  0.48 0.14 0  0.5 0.14 0  0.52 0.14 0  0.54 0.14 0  0.5600000000000001 0.14 0  0.58 0.14 0  0.6 0.14 0  0.62 0.14 0  0.64 0.14 0  0.66 0.14 0  0.68 0.14 0  0.7 0.14 0  0.72 0.14 0  0.74 0.14 0  0.76 0.14 0  0.78 0.14 0  0.8 0.14 0  0.82 0.14 0  0.84 0.14 0  0.86 0.14 0  0.88 0.14 0  0.9 0.14 0  0.92 0.14 0  0.9399999999999999 0.14 0  0.96 0.14 0  0.98 0.14 0  1 0.14 0  1.02 0.14 0  1.04 0.14 0  1.06 0.14 0  1.08 0.14 0  1.1 0.14 0  1.12 0.14 0  1.14 0.14 0  1.16 0.14 0  1.18 0.14 0  1.2 0.14 0  1.22 0.14 0  1.24 0.14 0  1.26 0.14 0  1.28 0.14 0  1.3 0.14 0  1.32 0.14 0  1.34 0.14 0  1.36 0.14 0  1.38 0.14 0  1.4 0.14 0  1.42 0.14 0  1.44 0.14 0  1.46 0.14 0  1.48 0.14 0  1
[...]
<PointData  Scalars="sols[i]"> 
<DataArray  type="Float64"  Name="sols[i]"  format="ascii">5.0995273228308691e-01  5.0733940839663039e-01  5.0734051226228749e-01  5.0734242862173251e-01  5.0734539429409520e-01  5.0734971440459020e-01  5.0735573620935726e-01  5.0736380506227097e-01  5.0737422115002051e-01  5.0738720189533681e-01  5.0740284953558779e-01  5.0742112281771135e-01  5.0744181247666953e-01  5.0746452112520146e-01  5.0748864925617043e-01  5.0751339029179687e-01  5.0753773903461363e-01  5.0756051947640846e-01  5.0758043965550403e-01  5.0759618300765652e-01  5.0760654721169951e-01  5.0761064249315702e-01  5.0760816106171347e-01  5.0759972680885834e-01  5.0758732814580143e-01  5.0757482510367946e-01  5.0756850263681630e-01  5.0757761415039104e-01  5.0761482313917672e-01  5.0769641054995907e-01  5.0784208036799150e-01  5.0807418098646506e-01  5.0841618360277274e-01  5.0889033707497855e-01  5.0951455580174099e-01  5.1029877771820931e-01  5.1124121237342890e-01  5.1232501541761233e-01  5.1351589469005521e-01  5.1476097337107740e-01  5.1598917644640829e-01  5.1711373660195847e-01  5.1803768911067039e-01  5.1866518811509132e-01  5.1892581974789020e-01  5.1881178399036132e-01  5.1840407639519104e-01  5.1785753996478223e-01  5.1735732114852262e-01  5.1706728970581739e-01  5.1708324962692853e-01  5.1739572168919667e-01  5.1789213928478295e-01  5.1839947852882007e-01  5.1873557488813860e-01  5.1875381379532026e-01  5.1837906094515895e-01  5.1761954533467036e-01  5.1654986666702496e-01  5.1528000266265661e-01  5.1392827367496352e-01  5.1260528271252059e-01  5.1140524907127294e-01  5.1039954578171443e-01  5.0963136289221822e-01  5.0911340554224982e-01  5.0883019715637823e-01  5.0874465689916915e-01  5.0880709271823865e-01  5.0896430098025613e-01  5.0916693740174968e-01  5.0937424638183770e-01  5.0955613360212759e-01  5.0969314994513526e-01  5.0977516310253423e-01  5.0979942495206831e-01  5.0976854406711603e-01  5.0968865949281705e-01  5.0956794450980192e-01  5.0941546239786795e-01  5.0924034063512758e-01  5.0905120856370967e-01  5.0885584115554916e-01  5.0866095772385134e-01  5.0847213332805963e-01  5.0829378940693259e-01  5.0812923782828101e-01  5.0798075891014027e-01  5.0784969922645906e-01  5.0773657941493000e-01  5.0764120597482831e-01  5.0756278430480584e-01  5.0750003296079427e-01  5.0745130106215641e-01  5.0741469144251550e-01  5.0738819103141219e-01  5.0736980743649751e-01  5.0735770935836733e-01  5.0735037088203860e-01  5.0734670491073852e-01  5.1435941386080009e-01  5.0733940136747280e-01  4.7393464698958054e-01  4.7393703064146775e-01  4.7394116598208974e-01  4.7394739922679546e-01  4.7395618085197849e-01  4.7396803733130199e-01  4.7398350399941647e-01  4.7400305203790688e-01  4.7402702111570594e-01  4.7405555923612264e-01  4.7408856992987286e-01  4.7412566747110885e-01  4.7416614191430928e-01  4.7420893737437569e-01  4.7425264908313192e-01  4.7429554727047818e-01  4.7433563871555934e-01  4.7437077971076119e-01  4.7439885689796862e-01  4.7441805450353103e-01  4.7442722718229069e-01  4.7442639587544372e-01  4.7441737824150459e-01  4.7440455332984272e-01  4.7439573994290724e-01  4.7440313745834078e-01  4.7444423566718608e-01  4.7454254757584974e-01  4.7472796075366636e-01  4.7503644756734115e-01  4.7550883563290464e-01  4.7618833437838753e-01  4.7711656530776630e-01  4.7832798552593520e-01  4.7984286372068402e-01  4.8165937317114205e-01  4.8374582228990670e-01  4.8603435149792901e-01  4.8841748013587188e-01  4.9074919729851385e-01  4.9285312928205260e-01  4.9453869416197205e-01  4.9562558182778838e-01  4.9598671338241218e-01  4.9561063564965790e-01  4.9464895423895516e-01  4.9340216084887084e-01  4.9225033032896415e-01  4.9155581292566841e-01  4.9156287399633186e-01  4.9230973968856356e-01  4.9360611819184086e-01  4.9510212620984917e-01  4.9639879392600905e-01  4.9714753458312710e-01  4.9712636915991371e-01  4.9626861324246774e-01  4.9464469792863131e-01  4.9242187710476637e-01  4.8982201969410688e-01  4.8708535540052539e-01  4.8443988442197394e-01  4.8207548893420343e-01  4.8012435831840788e-01  4.7865144168216961e-01  4.7765739607328028e-01  4.7709222510848825e-01  4.7687418112707819e-01  4.7690825278806875e-01  4.7710080365947477e-01  4.7736932782060848e-01  4.7764769087590842e-01  4.7788778190451536e-01  4.7805864417396943e-01  4.7814409722096207e-01  4.7813968572191695e-01  4.7804955249531911e-01  4.7788359836619826e-01  4.7765510384653381e-01  4.7737886011609065e-01  4.7706978242220927e-01  4.7674194278915355e-01  4.7640794649387264e-01  4.7607857756818267e-01  4.7576264594937784e-01  4.7546697900281421e-01  4.7519651095334614e-01  4.7495443427177103e-01  4.7474238679360609e-01  4.7456065709718109e-01  4.7440839830415149e-01  4.7428384673318785e-01  4.7418454606972515e-01  4.7410757855332958e-01  4.7404980023713789e-01  4.7400806737335466e-01  4.7397943450888835e-01  4.7396133401006763e-01  4.7395174057375355e-01  5.0734667247879339e-01  5.0734048167666324e-01  4.7393698288762831e-01  4.7394020928629743e-01  4.7394549938190728e-01  4.7395296593366010e-01  4.7396271816182262e-01  4.7397487717048103e-01  4.7398957515669854e-01  4.7400692641912368e-01  4.7402698441712815e-01  4.7404969730504809e-01  4.7407486915079783e-01  4.7410213093161846e-01  4.7413092443559068e-01  4.7416050263266152e-01  4.7418995128466185e-01  4.7421823812089275e-01  4.7424429752175318e-01  4.7426716006423109e-01  4.7428613717309620e-01  4.7430107104990493e-01  4.7431265839268882e-01  4.7432285231431404e-01  4.7433533920850285e-01  4.7435607480594516e-01  4.7439384505093368e-01  4.7446079196905472e-01  4.7457281299515058e-01  4.7474970742639000e-01  4.7501491272997842e-01  4.7539465799361041e-01  4.7591637739735115e-01  4.7660628901931734e-01  4.7748616196127242e-01  4.7856945723092970e-01  4.7985719440610886e-01  4.8133399555041378e-01  4.8296471746330499e-01  4.8469191332920453e-01  4.8643435410272401e-01  4.8808793300834619e-01  4.8953158699290616e-01  4.9063556041785794e-01  4.9127066181230788e-01  4.9134158482407403e-01  4.9084677422006501e-01  4.8991438966190165e-01  4.8877810329137006e-01  4.8773720528219766e-01  4.8710321937609607e-01  4.8710878171981209e-01  4.8780898264805139e-01  4.8905005698144371e-01  4.9052488556804541e-01  4.9187699222107062e-01  4.9280118147085117e-01  4.9312154985180973e-01  4.9280225075645462e-01  4.9190236218215772e-01  4.9053110448044707e-01  4.8882202562522514e-01  4.8691939364726372e-01  4.8496695970973719e-01  4.8309593876357415e-01  4.8141321974293633e-01  4.7999228630745872e-01  4.7886920667979027e-01  4.7804464908893834e-01  4.7749095369779082e-01  4.7716194146882185e-01  4.7700291959454177e-01  4.7695902093654408e-01  4.7698100831779983e-01  4.7702851478197189e-01  4.7707118660560438e-01  4.7708836786263781e-01  4.7706792585250002e-01  4.7700468149441627e-01  4.7689875807638782e-01  4.7675403543158679e-01  4.7657680576862593e-01  4.7637466832885872e-01  4.7615566447493818e-01  4.7592763490927964e-01  4.7569777075338826e-01  4.7547232646334031e-01  4.7525646269527083e-01  4.7505418980303382e-01  4.7486838667710524e-01  4.7470087442893677e-01  4.7455252944427251e-01  4.7442342503914042e-01  4.7431299463806204e-01  4.7422021090437838e-01  4.7414377283153902e-01  4.7408228461799157e-01  4.7403439729271574e-01  4.7399888126627659e-01  4.7397466681718575e-01  4.7396098198887143e-01  5.0735019099069034e-01  5.0734234299977143e-01  4.7394100203183070e-01  4.7394537557113758e-01  4.7395212062252917e-01  4.7396110954917242e-01  4.7397217950848014e-01  4.7398512284715472e-01  4.7399972018990827e-01  4.7401575471253865e-01  4.7403300242611479e-01  4.7405121140827078e-01  4.7407008188520594e-01  4.7408925525122914e-01  4.7410831759569677e-01  4.7412682235222853e-01  4.7414433672728579e-01  4.7416051703195727e-01  4.7417521847576499e-01  4.7418864500199120e-01  4.7420154396219344e-01  4.7421544839266860e-01  4.7423296581179902e-01  4.7425810613688513e-01  4.7429663178960729e-01  4.7435639966465826e-01  4.7444764711680604e-01  4.7458315316725153e-01  4.7477818423784152e-01  4.7505011622961296e-01  4.7541762071612770e-01  4.7589932498766757e-01  4.7651191712203783e-01  4.7726777578070895e-01  4.7817234991733432e-01  4.7922165294544783e-01  4.8040028226848347e-01  4.8168021022373836e-01  4.8302014104259527e-01  4.8436466798931876e-01  4.8564266246474835e-01  4.8676749906730304e-01  4.8764486299347831e-01  4.8817961669493942e-01  4.8827517247328306e-01  4.8786908583020350e-01  4.8700025182342677e-01  4.8583831868734745e-01  4.8461610681180667e-01  4.8356654877789002e-01  4.8293788290125617e-01  4.8292789037415862e-01  4.8360649666265743e-01  4.8490027781120010e-01  4.8659608972478324e-01  4.8837813916931183e-01  4.8990219038030108e-01  4.9091169394773881e-01  4.9132620542567668e-01  4.9118374561194850e-01  4.9056333819243281e-01  4.8955311272055413e-01  4.8824626396098714e-01  4.8674079090091071e-01  4.8513705757267966e-01  4.8353252598539442e-01  4.8201411621660162e-01  4.8065019480670357e-01  4.7948496082655967e-01  4.7853706272803304e-01  4.7780247583728924e-01  4.7726023262277539e-01  4.7687912041275243e-01  4.7662380487797618e-01  4.7645953171638994e-01  4.7635519741022242e-01  4.7628497959497790e-01  4.7622887975209760e-01  4.7617253798133552e-01  4.7610661625824563e-01  4.7602596779066741e-01  4.7592874092294363e-01  4.7581551302394315e-01  4.7568851143547647e-01  4.7555095141186510e-01  4.7540650206993634e-01  4.7525887860673910e-01  4.7511155101003055e-01  4.7496755511688704e-01  4.7482939025902843e-01  4.7469898802107729e-01  4.7457773797936198e-01  4.7446655776948227e-01  4.7436599541237140e-01  4.7427635042765504e-01  4.7419779626900876e-01  4.7413048132186048e-01  4.7407458473789227e-01  4.7403032101337594e-01  4.7399798068468763e-01  4.7397825894088103e-01  5.0735718426641041e-01  5.0734519731559891e-01  4.7394699956199443e-01  4.7395259237153770e-01  4.7396085365616342e-01  4.7397137159293928e-01  4.7398376840941114e-01  4.7399762251427180e-01  4.7401248267471402e-01  4.7402789906021831e-01  4.7404344119594066e-01  4.7405870345727880e-01  4.7407330741625753e-01  4.7408691062918917e-01  4.7409922961790357e-01  4.7411008319394415e-01  4.7411946132939575e-01  4.7412762421420912e-01  4.7413523551252013e-01  4.7414353268207460e-01  4.7415453509181404e-01  4.7417128707725764e-01  4.7419812748661977e-01  4.7424096915376135e-01  4.7430756063586166e-01  4.7440768833027142e-01  4.7455326031022471e-01  4.7475819582292900e-01  4.7503803051837740e-01  4.7540914432324649e-01  4.7588753699242264e-01  4.7648712833183060e-01  4.7721765601946625e-01  4.7808238233880712e-01  4.7907597418993397e-01  4.8018301618612769e-01  4.8137752274288376e-01  4.8262334788329520e-01  4.8387440669333220e-01  4.8507241467928391e-01  4.8614043838574833e-01  4.8697913911306401e-01  4.8748218958800221e-01  4.8755069054917893e-01  4.8709101986883069e-01  4.8608223029664488e-01  4.8464762077424317e-01  4.8305556418505685e-01  4.8160583213854163e-01  5.0996802032515454e-01  5.1332901911763251e-01  5.1329182682558216e-01  5.1390902219402179e-01  5.1127560880973666e-01  4.8388120251225375e-01  4.8634958892547198e-01  4.8888924595272554e-01  4.9098827627981922e-01  4.9234442720948457e-01  4.9292309701587050e-01  4.9281920315917205e-01  4.9215694115098219e-01  4.9105896889239853e-01  4.8963789576155065e-01  4.8799844773762457e-01  4.8624240411391562e-01  4.8446884951419472e-01  4.8276835360508363e-01  4.8121467488154251e-01  4.7985837213403348e-01  4.7872475527808844e-01  4.7781620457581347e-01  4.7711737785271541e-01  4.7660145768335599e-01  4.7623598606622830e-01  4.7598748958728493e-01  4.7582466850688981e-01  4.7572027718076376e-01  4.7565197563030792e-01  4.7560245410814073e-01  4.7555909219622039e-01  4.7551335510560327e-01  4.7546007359184689e-01  4.7539670747070722e-01  4.7532265684435432e-01  4.7523865840481622e-01  4.7514628483657556e-01  4.7504755188820769e-01  4.7494462885919286e-01  4.7483964292871123e-01  4.7473456486459448e-01  4.7463116211794898e-01  4.7453100406481236e-01  4.7443550231315662e-01  4.7434596641458349e-01  4.7426365389426378e-01  4.7418979888704244e-01  4.7412562438776412e-01  4.7407238044326167e-01  4.7403151386254555e-01  4.7400516491158534e-01  5.0736856469168079e-01  5.0734931429678665e-01  4.7395535824270330e-01  4.7396191668316329e-01  4.7397149788518433e-01  4.7398335145482107e-01  4.7399687626939546e-01  4.7401150099636397e-01  4.7402664236478570e-01  4.7404171748073026e-01  4.7405617183101645e-01  4.7406950585301849e-01  4.7408129948627720e-01  4.7409124154943033e-01  4.7409917216346625e-01  4.7410514554536154e-01  4.7410951917169930e-01  4.7411307400040820e-01  4.7411716894741662e-01  4.7412393072364217e-01  4.7413647695641364e-01  4.7415916573342298e-01  4.7419785780379325e-01  4.7426016820019051e-01  4.7435567176911392e-01  4.7449601227253396e-01  4.7469484859230421e-01  4.7496755705036592e-01  4.7533060138990318e-01  4.7580049014777370e-01  4.7639227652893279e-01  4.7711763067635915e-01  4.7798263539656016e-01  4.7898561468633699e-01  4.8011545731288546e-01  4.8135094679156998e-01  4.8266137258572384e-01  4.8400788523485699e-01  4.8534331706427336e-01  4.8660562610442792e-01  4.8770001096652527e-01  4.8848340601778018e-01  4.8879375429523580e-01  4.8848519694140258e-01  4.8743226628579939e-01  4.8568342230109429e-01  4.8353663918976858e-01  5.1097866708666839e-01  5.1327020984921434e-01  5.1449753766214257e-01  5.2278064689735904e-01  5.2279421872980381e-01  5.2349413930856170e-01  5.2496877665398867e-01  5.1829829668775784e-01  5.1518678039593946e-01  4.8952627373632746e-01  4.9310556833685110e-01  4.9567435292208378e-01  4.9698724502746761e-01  4.9716072972299724e-01  4.9646199696406568e-01  4.9515780699601991e-01  4.9344983518950825e-01  4.9148026381660748e-01  4.8936106049498934e-01  4.8719510359337126e-01  4.8508079786666247e-01  4.8310573601160584e-01  4.8133779557528855e-01  4.7981936746095033e-01  4.7856665936315090e-01  4.7757332256533708e-01  4.7681648985951713e-01  4.7626332697061624e-01  4.7587679611311023e-01  4.7562002112283797e-01  4.7545916676424155e-01  4.7536503672699792e-01  4.7531370169923132e-01  4.7528646558286980e-01  4.7526942575351278e-01  4.7525281949760362e-01  4.7523029094003716e-01  4.7519816661127073e-01  4.7515479336937544e-01  4.7509996777766966e-01  4.7503446902151825e-01  4.7495969606918048e-01  4.7487740240649634e-01  4.7478951691307492e-01  4.7469803608684552e-01  4.7460496991829765e-01  4.7451232099585977e-01  4.7442207531081160e-01  4.7433618854509724e-01  4.7425657265498600e-01  4.7418513160682180e-01  4.7412393720597312e-01  4.7407559041423558e-01  4.7404358349652886e-01  5.0738556162528314e-01  5.0735499575199805e-01  4.7396652365990366e-01  4.7397342638357326e-01  4.7398383481452167e-01  4.7399664409437298e-01  4.7401097300834033e-01  4.7402610234908799e-01  4.7404136989358542e-01  4.7405613425171961e-01  4.7406978987513415e-01  4.7408180254398802e-01  4.7409175123272479e-01  4.7409937645765865e-01  4.7410464132477170e-01  4.7410781266945695e-01  4.7410956882423694e-01  4.7411113897256479e-01  4.7411447699291925e-01  4.7412246991331802e-01  4.7413917713221382e-01  4.7417009090361928e-01  4.7422240073975125e-01  4.7430523397853463e-01  4.7442983173364894e-01  4.7460960437392796e-01  4.7485999533078660e-01  4.7519807007628617e-01  4.7564174491086542e-01  4.7620858725720477e-01  4.7691416749190380e-01  4.7777003353628067e-01  4.7878151780651729e-01  4.7994575664944183e-01  4.8125045183153364e-01  4.8267391239429636e-01  4.8418655046821107e-01  4.8575283589456725e-01  4.8733001954192973e-01  4.8885512363962202e-01  4.9020843722451724e-01  4.9117280881268671e-01  4.9147531452721560e-01  4.9085194040009106e-01  4.8911680612800845e-01  4.8645165648866262e-01  5.1301279256028909e-01  5.1666699309415920e-01  5.2342232295331759e-01  5.2185702704044612e-01  5.2121551138755817e-01  5.2090323424664065e-01  5.2171338054307648e-01  5.2259123553759523e-01  5.2589960306134675e-01  5.3099681734855497e-01  5.2555777002924198e-01  4.9738047596336432e-01  5.0139907145552054e-01  5.0349656982776347e-01  5.0372761094846463e-01  5.0256210579138449e-01  5.0057467453983195e-01  4.9816389445673809e-01  4.9554591094148304e-01  4.9284124653707556e-01  4.9014084748449194e-01  4.8753215359005253e-01  4.8509892618533901e-01  4.8291133514989787e-01  4.8101691500774363e-01  4.7943679320908900e-01  4.7816739230079019e-01  4.7718578333763961e-01  4.7645646128490843e-01  4.7593780239041650e-01  4.7558723358824384e-01  4.7536481151765753e-01  4.7523533060096529e-01  4.7516927116377139e-01  4.7514293496455384e-01  4.7513807188515816e-01  4.7514123041626782e-01  4.7514299461633452e-01  4.7513721308373535e-01  4.7512028327386435e-01  4.7509052518463379e-01  4.7504765888619782e-01  4.7499238766049889e-01  4.7492608030414396e-01  4.7485054065709004e-01  4.7476784837544778e-01  4.7468025174401912e-01  4.7459009154782056e-01  4.7449973784774813e-01  4.7441153636709693e-01  4.7432779936156655e-01  4.7425093874539992e-01  4.7418386281156960e-01  4.7413050627480435e-01  4.7409548541293572e-01  5.0740955235964857e-01  5.0736253503464557e-01  4.7398094351208653e-01  4.7398722888036388e-01  4.7399767316985075e-01  4.7401086602493198e-01  4.7402557284074959e-01  4.7404088401378319e-01  4.7405606536550454e-01  4.7407045690924920e-01  4.7408345416537095e-01  4.7409453739522456e-01  4.7410332199456418e-01  4.7410962130647366e-01  4.7411352389456307e-01  4.7411549134169290e-01  4.7411648301892284e-01  4.7411811297482209e-01  4.7412284185356685e-01  4.7413420356049457e-01  4.7415706191087459e-01  4.7419788625781428e-01  4.7426502664768877e-01  4.7436895811006752e-01  4.7452245035813545e-01  4.7474060432109383e-01  4.7504068273977129e-01  4.7544165275099620e-01  4.7596336092504032e-01  4.7662528556362260e-01  4.7744486919912188e-01  4.7843553674794270e-01  4.7960465348922376e-01  4.8095185221365389e-01  4.8246829878830721e-01  4.8413743158799366e-01  4.8593721529361444e-01  4.8784238800321283e-01  4.8982130974412541e-01  4.9181401929379853e-01  4.9366910335320585e-01  4.9506790082423324e-01  4.9557641987439671e-01  4.9468282531353702e-01  4.9204152559793846e-01  5.1804885718188476e-01  5.1929199987701946e-01  5.2398890132166864e-01  5.2207799884956752e-01  5.1896178166078311e-01  5.1896178166116735e-01  5.1896178166164009e-01  5.1896178166097506e-01  5.1896178166221341e-01  5.1896178166232698e-01  5.2631399160507919e-01  5.3652066651149821e-01  5.3838588311151703e-01  5.1006461794829761e-01  5.1283999620182907e-01  5.1288533291146032e-01  5.1077721327020043e-01  5.0754034993412012e-01  5.0393026371421279e-01  5.0028883962606152e-01  4.9673834146087598e-01  4.9333473839984937e-01  4.9013088735948740e-01  4.8718650878463787e-01  4.8455784686182107e-01  4.8228514443877873e-01  4.8038536413337191e-01  4.7885142371324890e-01  4.7765628612972910e-01  4.7675941194894872e-01  4.7611343980744097e-01  4.7566978229121426e-01  4.7538261577044116e-01  4.7521128349533392e-01  4.7512140587788015e-01  4.7508507127059368e-01  4.7508044943366257e-01  4.7509109405136557e-01  4.7510511979112746e-01  4.7511437174096932e-01  4.7511365537501216e-01  4.7510006164557927e-01  4.7507240038917053e-01  4.7503074201775630e-01  4.7497605932935183e-01  4.7490995602993907e-01  4.7483446492044834e-01  4.7475189646470062e-01  4.7466471920088371e-01  4.7457546195065292e-01  4.7448665338940332e-01  4.7440086874587928e-01  4.7432102752287875e-01  4.7425106419343532e-01  4.7419652535424445e-01  4.7416272668020137e-01  5.0744188738515938e-01  5.0737218111975224e-01  4.7399900640724180e-01  4.7400344063694833e-01  4.7401286925656805e-01  4.7402569004787848e-01  4.7404024668720129e-01  4.7405537495060129e-01  4.7407024302979228e-01  4.7408418045626860e-01  4.7409661145552490e-01  4.7410706403870073e-01  4.7411521872898182e-01  4.7412097933701913e-01  4.7412456248634560e-01  4.7412660948986235e-01  4.7412832622068513e-01  4.7413165606157465e-01  4.7413948895922886e-01  4.7415590631134474e-01  4.7418645667914011e-01  4.7423845076777432e-01  4.74321255380