<?xml version="1.0"?>
<VTKFile type="UnstructuredGrid"  version="0.1"  >
<UnstructuredGrid>
<Piece  NumberOfPoints="5151" NumberOfCells="10000">
<Points>
<DataArray  type="Float64"  NumberOfComponents="3"  format="ascii">0 0 0  0.02 0 0  0.04 0 0  0.06 0 0  0.08 0 0  0.1 0 0  0.12 0 0  0.14 0 0  0.16 0 0  0.18 0 0  0.2 0 0  0.22 0 0  0.24 0 0  0.26 0 0  0.28 0 0  0.3 0 0  0.32 0 0  0.34 0 0  0.36 0 0  0.38 0 0  0.4 0 0  0.42 0 0  0.44 0 0  0.46 0 0  0.48 0 0  0.5 0 0  0.52 0 0  0.54 0 0  0.5600000000000001 0 0  0.58 0 0  0.6 0 0  0.62 0 0  0.64 0 0  0.66 0 0  0.68 0 0  0.7 0 0  0.72 0 0  0.74 0 0  0.76 0 0  0.78 0 0  0.8 0 0  0.82 0 0  0.84 0 0  0.86 0 0  0.88 0 0  0.9 0 0  0.92 0 0  0.9399999999999999 0 0  0.96 0 0  0.98 0 0  1 0 0  1.02 0 0  1.04 0 0  1.06 0 0  1.08 0 0  1.1 0 0  1.12 0 0  1.14 0 0  1.16 0 0  1.18 0 0  1.2 0 0  1.22 0 0  1.24 0 0  1.26 0 0  1.28 0 0  1.3 0 0  1.32 0 0  1.34 0 0  1.36 0 0  1.38 0 0  1.4 0 0  1.42 0 0  1.44 0 0  1.46 0 0  1.48 0 0  1.5 0 0  1.52 0 0  1.54 0 0  1.56 0 0  1.58 0 0  1.6 0 0  1.62 0 0  1.64 0 0  1.66 0 0  1.68 0 0  1.7 0 0  1.72 0 0  1.74 0 0  1.76 0 0  1.78 0 0  1.8 0 0  1.82 0 0  1.84 0 0  1.86 0 0  1.88 0 0  1.9 0 0  1.92 0 0  1.94 0 0  1.96 0 0  1.98 0 0  2 0 0  0 0.02 0  0.02 0.02 0  0.04 0.02 0  0.06 0.02 0  0.08 0.02 0  0.1 0.02 0  0.12 0.02 0  0.14 0.02 0  0.16 0.02 0  0.18 0.02 0  0.2 0.02 0  0.22 0.02 0  0.24 0.02 0  0.26 0.02 0  0.28 0.02 0  0.3 0.02 0  0.32 0.02 0  0.34 0.02 0  0.36 0.02 0  0.38 0.02 0  0.4 0.02 0  0.42 0.02 0  0.44 0.02 0  0.46 0.02 0  0.48 0.02 0  0.5 0.02 0  0.52 0.02 0  0.54 0.02 0  0.5600000000000001 0.02 0  0.58 0.02 0  0.6 0.02 0  0.62 0.02 0  0.64 0.02 0  0.66 0.02 0  0.68 0.02 0  0.7 0.02 0  0.72 0.02 0  0.74 0.02 0  0.76 0.02 0  0.78 0.02 0  0.8 0.02 0  0.82 0.02 0  0.84 0.02 0  0.86 0.02 0  0.88 0.02 0  0.9 0.02 0  0.92 0.02 0  0.9399999999999999 0.02 0  0.96 0.02 0  0.98 0.02 0  1 0.02 0  1.02 0.02 0  1.04 0.02 0  1.06 0.02 0  1.08 0.02 0  1.1 0.02 0  1.12 0.02 0  1.14 0.02 0  1.16 0.02 0  1.18 0.02 0  1.2 0.02 0  1.22 0.02 0  1.24 0.02 0  1.26 0.02 0  1.28 0.02 0  1.3 0.02 0  1.32 0.02 0  1.34 0.02 0  1.36 0.02 0  1.38 0.02 0  1.4 0.02 0  1.42 0.02 0  1.44 0.02 0  1.46 0.02 0  1.48 0.02 0  1.5 0.02 0  1.52 0.02 0  1.54 0.02 0  1.56 0.02 0  1.58 0.02 0  1.6 0.02 0  1.62 0.02 0  1.64 0.02 0  1.66 0.02 0  1.68 0.02 0  1.7 0.02 0  1.72 0.02 0  1.74 0.02 0  1.76 0.02 0  1.78 0.02 0  1.8 0.02 0  1.82 0.02 0  1.84 0.02 0  1.86 0.02 0  1.88 0.02 0  1.9 0.02 0  1.92 0.02 0  1.94 0.02 0  1.96 0.02 0  1.98 0.02 0  2 0.02 0  0 0.04 0  0.02 0.04 0  0.04 0.04 0  0.06 0.04 0  0.08 0.04 0  0.1 0.04 0  0.12 0.04 0  0.14 0.04 0  0.16 0.04 0  0.18 0.04 0  0.2 0.04 0  0.22 0.04 0  0.24 0.04 0  0.26 0.04 0  0.28 0.04 0  0.3 0.04 0  0.32 0.04 0  0.34 0.04 0  0.36 0.04 0  0.38 0.04 0  0.4 0.04 0  0.42 0.04 0  0.44 0.04 0  0.46 0.04 0  0.48 0.04 0  0.5 0.04 0  0.52 0.04 0  0.54 0.04 0  0.5600000000000001 0.04 0  0.58 0.04 0  0.6 0.04 0  0.62 0.04 0  0.64 0.04 0  0.66 0.04 0  0.68 0.04 0  0.7 0.04 0  0.72 0.04 0  0.74 0.04 0  0.76 0.04 0  0.78 0.04 0  0.8 0.04 0  0.82 0.04 0  0.84 0.04 0  0.86 0.04 0  0.88 0.04 0  0.9 0.04 0  0.92 0.04 0  0.9399999999999999 0.04 0  0.96 0.04 0  0.98 0.04 0  1 0.04 0  1.02 0.04 0  1.04 0.04 0  1.06 0.04 0  1.08 0.04 0  1.1 0.04 0  1.12 0.04 0  1.14 0.04 0  1.16 0.04 0  1.18 0.04 0  1.2 0.04 0  1.22 0.04 0  1.24 0.04 0  1.26 0.04 0  1.28 0.04 0  1.3 0.04 0  1.32 0.04 0  1.34 0.04 0  1.36 0.04 0  1.38 0.04 0  1.4 0.04 0  1.42 0.04 0  1.44 0.04 0  1.46 0.04 0  1.48 0.04 0  1.5 0.04 0  1.52 0.04 0  1.54 0.04 0  1.56 0.04 0  1.58 0.04 0  1.6 0.04 0  1.62 0.04 0  1.64 0.04 0  1.66 0.04 0  1.68 0.04 0  1.7 0.04 0  1.72 0.04 0  1.74 0.04 0  1.76 0.04 0  1.78 0.04 0  1.8 0.04 0  1.82 0.04 0  1.84 0.04 0  1.86 0.04 0  1.88 0.04 0  1.9 0.04 0  1.92 0.04 0  1.94 0.04 0  1.96 0.04 0  1.98 0.04 0  2 0.04 0  0 0.06 0  0.02 0.06 0  0.04 0.06 0  0.06 0.06 0  0.08 0.06 0  0.1 0.06 0  0.12 0.06 0  0.14 0.06 0  0.16 0.06 0  0.18 0.06 0  0.2 0.06 0  0.22 0.06 0  0.24 0.06 0  0.26 0.06 0  0.28 0.06 0  0.3 0.06 0  0.32 0.06 0  0.34 0.06 0  0.36 0.06 0  0.38 0.06 0  0.4 0.06 0  0.42 0.06 0  0.44 0.06 0  0.46 0.06 0  0.48 0.06 0  0.5 0.06 0  0.52 0.06 0  0.54 0.06 0  0.5600000000000001 0.06 0  0.58 0.06 0  0.6 0.06 0  0.62 0.06 0  0.64 0.06 0  0.66 0.06 0  0.68 0.06 0  0.7 0.06 0  0.72 0.06 0  0.74 0.06 0  0.76 0.06 0  0.78 0.06 0  0.8 0.06 0  0.82 0.06 0  0.84 0.06 0  0.86 0.06 0  0.88 0.06 0  0.9 0.06 0  0.92 0.06 0  0.9399999999999999 0.06 0  0.96 0.06 0  0.98 0.06 0  1 0.06 0  1.02 0.06 0  1.04 0.06 0  1.06 0.06 0  1.08 0.06 0  1.1 0.06 0  1.12 0.06 0  1.14 0.06 0  1.16 0.06 0  1.18 0.06 0  1.2 0.06 0  1.22 0.06 0  1.24 0.06 0  1.26 0.06 0  1.28 0.06 0  1.3 0.06 0  1.32 0.06 0  1.34 0.06 0  1.36 0.06 0  1.38 0.06 0  1.4 0.06 0  1.42 0.06 0  1.44 0.06 0  1.46 0.06 0  1.48 0.06 0  1.5 0.06 0  1.52 0.06 0  1.54 0.06 0  1.56 0.06 0  1.58 0.06 0  1.6 0.06 0  1.62 0.06 0  1.64 0.06 0  1.66 0.06 0  1.68 0.06 0  1.7 0.06 0  1.72 0.06 0  1.74 0.06 0  1.76 0.06 0  1.78 0.06 0  1.8 0.06 0  1.82 0.06 0  1.84 0.06 0  1.86 0.06 0  1.88 0.06 0  1.9 0.06 0  1.92 0.06 0  1.94 0.06 0  1.96 0.06 0  1.98 0.06 0  2 0.06 0  0 0.08 0  0.02 0.08 0  0.04 0.08 0  0.06 0.08 0  0.08 0.08 0  0.1 0.08 0  0.12 0.08 0  0.14 0.08 0  0.16 0.08 0  0.18 0.08 0  0.2 0.08 0  0.22 0.08 0  0.24 0.08 0  0.26 0.08 0  0.28 0.08 0  0.3 0.08 0  0.32 0.08 0  0.34 0.08 0  0.36 0.08 0  0.38 0.08 0  0.4 0.08 0  0.42 0.08 0  0.44 0.08 0  0.46 0.08 0  0.48 0.08 0  0.5 0.08 0  0.52 0.08 0  0.54 0.08 0  0.5600000000000001 0.08 0  0.58 0.08 0  0.6 0.08 0  0.62 0.08 0  0.64 0.08 0  0.66 0.08 0  0.68 0.08 0  0.7 0.08 0  0.72 0.08 0  0.74 0.08 0  0.76 0.08 0  0.78 0.08 0  0.8 0.08 0  0.82 0.08 0  0.84 0.08 0  0.86 0.08 0  0.88 0.08 0  0.9 0.08 0  0.92 0.08 0  0.9399999999999999 0.08 0  0.96 0.08 0  0.98 0.08 0  1 0.08 0  1.02 0.08 0  1.04 0.08 0  1.06 0.08 0  1.08 0.08 0  1.1 0.08 0  1.12 0.08 0  1.14 0.08 0  1.16 0.08 0  1.18 0.08 0  1.2 0.08 0  1.22 0.08 0  1.24 0.08 0  1.26 0.08 0  1.28 0.08 0  1.3 0.08 0  1.32 0.08 0  1.34 0.08 0  1.36 0.08 0  1.38 0.08 0  1.4 0.08 0  1.42 0.08 0  1.44 0.08 0  1.46 0.08 0  1.48 0.08 0  1.5 0.08 0  1.52 0.08 0  1.54 0.08 0  1.56 0.08 0  1.58 0.08 0  1.6 0.08 0  1.62 0.08 0  1.64 0.08 0  1.66 0.08 0  1.68 0.08 0  1.7 0.08 0  1.72 0.08 0  1.74 0.08 0  1.76 0.08 0  1.78 0.08 0  1.8 0.08 0  1.82 0.08 0  1.84 0.08 0  1.86 0.08 0  1.88 0.08 0  1.9 0.08 0  1.92 0.08 0  1.94 0.08 0  1.96 0.08 0  1.98 0.08 0  2 0.08 0  0 0.1 0  0.02 0.1 0  0.04 0.1 0  0.06 0.1 0  0.08 0.1 0  0.1 0.1 0  0.12 0.1 0  0.14 0.1 0  0.16 0.1 0  0.18 0.1 0  0.2 0.1 0  0.22 0.1 0  0.24 0.1 0  0.26 0.1 0  0.28 0.1 0  0.3 0.1 0  0.32 0.1 0  0.34 0.1 0  0.36 0.1 0  0.38 0.1 0  0.4 0.1 0  0.42 0.1 0  0.44 0.1 0  0.46 0.1 0  0.48 0.1 0  0.5 0.1 0  0.52 0.1 0  0.54 0.1 0  0.5600000000000001 0.1 0  0.58 0.1 0  0.6 0.1 0  0.62 0.1 0  0.64 0.1 0  0.66 0.1 0  0.68 0.1 0  0.7 0.1 0  0.72 0.1 0  0.74 0.1 0  0.76 0.1 0  0.78 0.1 0  0.8 0.1 0  0.82 0.1 0  0.84 0.1 0  0.86 0.1 0  0.88 0.1 0  0.9 0.1 0  0.92 0.1 0  0.9399999999999999 0.1 0  0.96 0.1 0  0.98 0.1 0  1 0.1 0  1.02 0.1 0  1.04 0.1 0  1.06 0.1 0  1.08 0.1 0  1.1 0.1 0  1.12 0.1 0  1.14 0.1 0  1.16 0.1 0  1.18 0.1 0  1.2 0.1 0  1.22 0.1 0  1.24 0.1 0  1.26 0.1 0  1.28 0.1 0  1.3 0.1 0  1.32 0.1 0  1.34 0.1 0  1.36 0.1 0  1.38 0.1 0  1.4 0.1 0  1.42 0.1 0  1.44 0.1 0  1.46 0.1 0  1.48 0.1 0  1.5 0.1 0  1.52 0.1 0  1.54 0.1 0  1.56 0.1 0  1.58 0.1 0  1.6 0.1 0  1.62 0.1 0  1.64 0.1 0  1.66 0.1 0  1.68 0.1 0  1.7 0.1 0  1.72 0.1 0  1.74 0.1 0  1.76 0.1 0  1.78 0.1 0  1.8 0.1 0  1.82 0.1 0  1.84 0.1 0  1.86 0.1 0  1.88 0.1 0  1.9 0.1 0  1.92 0.1 0  1.94 0.1 0  1.96 0.1 0  1.98 0.1 0  2 0.1 0  0 0.12 0  0.02 0.12 0  0.04 0.12 0  0.06 0.12 0  0.08 0.12 0  0.1 0.12 0  0.12 0.12 0  0.14 0.12 0  0.16 0.12 0  0.18 0.12 0  0.2 0.12 0  0.22 0.12 0  0.24 0.12 0  0.26 0.12 0  0.28 0.12 0  0.3 0.12 0  0.32 0.12 0  0.34 0.12 0  0.36 0.12 0  0.38 0.12 0  0.4 0.12 0  0.42 0.12 0  0.44 0.12 0  0.46 0.12 0  0.48 0.12 0  0.5 0.12 0  0.52 0.12 0  0.54 0.12 0  0.5600000000000001 0.12 0  0.58 0.12 0  0.6 0.12 0  0.62 0.12 0  0.64 0.12 0  0.66 0.12 0  0.68 0.12 0  0.7 0.12 0  0.72 0.12 0  0.74 0.12 0  0.76 0.12 0  0.78 0.12 0  0.8 0.12 0  0.82 0.12 0  0.84 0.12 0  0.86 0.12 0  0.88 0.12 0  0.9 0.12 0  0.92 0.12 0  0.9399999999999999 0.12 0  0.96 0.12 0  0.98 0.12 0  1 0.12 0  1.02 0.12 0  1.04 0.12 0  1.06 0.12 0  1.08 0.12 0  1.1 0.12 0  1.12 0.12 0  1.14 0.12 0  1.16 0.12 0  1.18 0.12 0  1.2 0.12 0  1.22 0.12 0  1.24 0.12 0  1.26 0.12 0  1.28 0.12 0  1.3 0.12 0  1.32 0.12 0  1.34 0.12 0  1.36 0.12 0  1.38 0.12 0  1.4 0.12 0  1.42 0.12 0  1.44 0.12 0  1.46 0.12 0  1.48 0.12 0  1.5 0.12 0  1.52 0.12 0  1.54 0.12 0  1.56 0.12 0  1.58 0.12 0  1.6 0.12 0  1.62 0.12 0  1.64 0.12 0  1.66 0.12 0  1.68 0.12 0  1.7 0.12 0  1.72 0.12 0  1.74 0.12 0  1.76 0.12 0  1.78 0.12 0  1.8 0.12 0  1.82 0.12 0  1.84 0.12 0  1.86 0.12 0  1.88 0.12 0  1.9 0.12 0  1.92 0.12 0  1.94 0.12 0  1.96 0.12 0  1.98 0.12 0  2 0.12 0  0 0.14 0  0.02 0.14 0  0.04 0.14 0  0.06 0.14 0  0.08 0.14 0  0.1 0.14 0  0.12 0.14 0  0.14 0.14 0  0.16 0.14 0  0.18 0.14 0  0.2 0.14 0  0.22 0.14 0  0.24 0.14 0  0.26 0.14 0  0.28 0.14 0  0.3 0.14 0  0.32 0.14 0  0.34 0.14 0  0.36 0.14 0  0.38 0.14 0  0.4 0.14 0  0.42 0.14 0  0.44 0.14 0  0.46 0.14 0  0.48 0.14 0  0.5 0.14 0  0.52 0.14 0  0.54 0.14 0  0.5600000000000001 0.14 0  0.58 0.14 0  0.6 0.14 0  0.62 0.14 0  0.64 0.14 0  0.66 0.14 0  0.68 0.14 0  0.7 0.14 0  0.72 0.14 0  0.74 0.14 0  0.76 0.14 0  0.78 0.14 0  0.8 0.14 0  0.82 0.14 0  0.84 0.14 0  0.86 0.14 0  0.88 0.14 0  0.9 0.14 0  0.92 0.14 0  0.9399999999999999 0.14 0  0.96 0.14 0  0.98 0.14 0  1 0.14 0  1.02 0.14 0  1.04 0.14 0  1.06 0.14 0  1.08 0.14 0  1.1 0.14 0  1.12 0.14 0  1.14 0.14 0  1.16 0.14 0  1.18 0.14 0  1.2 0.14 0  1.22 0.14 0  1.24 0.14 0  1.26 0.14 0  1.28 0.14 0  1.3 0.14 0  1.32 0.14 0  1.34 0.14 0  1.36 0.14 0  1.38 0.14 0  1.4 0.14 0  1.42 0.14 0  1.44 0.14 0  1.46 0.14 0  1.48 0.14 0  1
[...]
<PointData  Scalars="sols[i]"> 
<DataArray  type="Float64"  Name="sols[i]"  format="ascii">4.2173342214305639e-04  2.8119236679211820e-04  2.8119236789434762e-04  2.8119237034122241e-04  2.8119237551001863e-04  2.8119238627658156e-04  2.8119240856254235e-04  2.8119245442480187e-04  2.8119254806408033e-04  2.8119273706447249e-04  2.8119311220297413e-04  2.8119383914941727e-04  2.8119520092346578e-04  2.8119763368698018e-04  2.8120170024577675e-04  2.8120789142675094e-04  2.8121617759277402e-04  2.8122559264899847e-04  2.8123437677386335e-04  2.8124068046441218e-04  2.8124337053416951e-04  2.8124238647476535e-04  2.8123851989094595e-04  2.8123296316103717e-04  2.8122679695424379e-04  2.8122074418794580e-04  2.8121519672841088e-04  2.8121033317201369e-04  2.8120621288718059e-04  2.8120282677216303e-04  2.8120012235037956e-04  2.8119801970822656e-04  2.8119642501382415e-04  2.8119524221037733e-04  2.8119438179948582e-04  2.8119376613383070e-04  2.8119333153022851e-04  2.8119302805381638e-04  2.8119281793185548e-04  2.8119267339184358e-04  2.8119257445865039e-04  2.8119250700206223e-04  2.8119246114756652e-04  2.8119243005473205e-04  2.8119240901464343e-04  2.8119239480091054e-04  2.8119238521129736e-04  2.8119237874761345e-04  2.8119237439372765e-04  2.8119237146232465e-04  2.8119236948953341e-04  2.8119236816276383e-04  2.8119236727150822e-04  2.8119236667396722e-04  2.8119236627452247e-04  2.8119236600859636e-04  2.8119236583250718e-04  2.8119236571666907e-04  2.8119236564105431e-04  2.8119236559212134e-04  2.8119236556074464e-04  2.8119236554081023e-04  2.8119236552825191e-04  2.8119236552039053e-04  2.8119236551548039e-04  2.8119236551239811e-04  2.8119236551043067e-04  2.8119236550913255e-04  2.8119236550823239e-04  2.8119236550756111e-04  2.8119236550702616e-04  2.8119236550657503e-04  2.8119236550617837e-04  2.8119236550582254e-04  2.8119236550550161e-04  2.8119236550521370e-04  2.8119236550495805e-04  2.8119236550473421e-04  2.8119236550454112e-04  2.8119236550437719e-04  2.8119236550423998e-04  2.8119236550412896e-04  2.8119236550403588e-04  2.8119236550396080e-04  2.8119236550390155e-04  2.8119236550385433e-04  2.8119236550381665e-04  2.8119236550378619e-04  2.8119236550376125e-04  2.8119236550374027e-04  2.8119236550372227e-04  2.8119236550370666e-04  2.8119236550369289e-04  2.8119236550368281e-04  2.8119236550367121e-04  2.8119236550366129e-04  2.8119236550365386e-04  2.8119236550364822e-04  2.8119236550364448e-04  2.8119236550364269e-04  8.4311252805348768e-04  2.8119236656166344e-04  1.4061112179344169e-04  1.4061112233805593e-04  1.4061112357096578e-04  1.4061112619124161e-04  1.4061113167408929e-04  1.4061114308841529e-04  1.4061116677100392e-04  1.4061121569286891e-04  1.4061131604869450e-04  1.4061151961665920e-04  1.4061192537121527e-04  1.4061271283755770e-04  1.4061418123581442e-04  1.4061676040420790e-04  1.4062089692407946e-04  1.4062668806356322e-04  1.4063347456010801e-04  1.4063991894047733e-04  1.4064457481045923e-04  1.4064656027671846e-04  1.4064584651475701e-04  1.4064304763099526e-04  1.4063908041828842e-04  1.4063474161128475e-04  1.4063052991565358e-04  1.4062669672444241e-04  1.4062334961335114e-04  1.4062052167081998e-04  1.4061820348074098e-04  1.4061635729119106e-04  1.4061492663384255e-04  1.4061384548220786e-04  1.4061304653432136e-04  1.4061246743508605e-04  1.4061205443540169e-04  1.4061176374967232e-04  1.4061156127192207e-04  1.4061142136221206e-04  1.4061132527262284e-04  1.4061125958232987e-04  1.4061121483390263e-04  1.4061118443781266e-04  1.4061116383918887e-04  1.4061114990733699e-04  1.4061114049958290e-04  1.4061113415463360e-04  1.4061112987908000e-04  1.4061112699960800e-04  1.4061112506108588e-04  1.4061112375653254e-04  1.4061112287918861e-04  1.4061112228986501e-04  1.4061112189481600e-04  1.4061112163082066e-04  1.4061112145516812e-04  1.4061112133895479e-04  1.4061112126259655e-04  1.4061112121282814e-04  1.4061112118068139e-04  1.4061112116011326e-04  1.4061112114707776e-04  1.4061112113888697e-04  1.4061112113377292e-04  1.4061112113058607e-04  1.4061112112858848e-04  1.4061112112731332e-04  1.4061112112646982e-04  1.4061112112588101e-04  1.4061112112543925e-04  1.4061112112508315e-04  1.4061112112478019e-04  1.4061112112451188e-04  1.4061112112427000e-04  1.4061112112405112e-04  1.4061112112385442e-04  1.4061112112367962e-04  1.4061112112352659e-04  1.4061112112339461e-04  1.4061112112328261e-04  1.4061112112318905e-04  1.4061112112311275e-04  1.4061112112305013e-04  1.4061112112299901e-04  1.4061112112295884e-04  1.4061112112292691e-04  1.4061112112290146e-04  1.4061112112288092e-04  1.4061112112286408e-04  1.4061112112284991e-04  1.4061112112283774e-04  1.4061112112282714e-04  1.4061112112281773e-04  1.4061112112281023e-04  1.4061112112280302e-04  1.4061112112279602e-04  1.4061112112279095e-04  1.4061112112278700e-04  1.4061112112278431e-04  1.4061112112278288e-04  2.8119236550364649e-04  2.8119236689001093e-04  1.4061112199191308e-04  1.4061112270572358e-04  1.4061112432729535e-04  1.4061112778525572e-04  1.4061113505799499e-04  1.4061115031814857e-04  1.4061118236438259e-04  1.4061124976665277e-04  1.4061139165088757e-04  1.4061168983031710e-04  1.4061231237947084e-04  1.4061359300067584e-04  1.4061615438193081e-04  1.4062102962307706e-04  1.4062951342097522e-04  1.4064212468183350e-04  1.4065726946377207e-04  1.4067152522312160e-04  1.4068129658129493e-04  1.4068467405629298e-04  1.4068201286932046e-04  1.4067504490361909e-04  1.4066609220377848e-04  1.4065688680988997e-04  1.4064829843337559e-04  1.4064066506778845e-04  1.4063409741123982e-04  1.4062861171102310e-04  1.4062416505005349e-04  1.4062066606719504e-04  1.4061798892357546e-04  1.4061599182249940e-04  1.4061453446209611e-04  1.4061349042512064e-04  1.4061275358340201e-04  1.4061223958603851e-04  1.4061188418852769e-04  1.4061164004585631e-04  1.4061147312558679e-04  1.4061135940580800e-04  1.4061128214508696e-04  1.4061122977513600e-04  1.4061119434719628e-04  1.4061117042085051e-04  1.4061115428408682e-04  1.4061114341158690e-04  1.4061113609041873e-04  1.4061113116206999e-04  1.4061112784502912e-04  1.4061112561312229e-04  1.4061112411243852e-04  1.4061112310490215e-04  1.4061112243016715e-04  1.4061112198002259e-04  1.4061112168127371e-04  1.4061112148431554e-04  1.4061112135549750e-04  1.4061112127201154e-04  1.4061112121844304e-04  1.4061112118442457e-04  1.4061112116303692e-04  1.4061112114970579e-04  1.4061112114144202e-04  1.4061112113631760e-04  1.4061112113310646e-04  1.4061112113104127e-04  1.4061112112965016e-04  1.4061112112864944e-04  1.4061112112787104e-04  1.4061112112722100e-04  1.4061112112665090e-04  1.4061112112613580e-04  1.4061112112566585e-04  1.4061112112523841e-04  1.4061112112485370e-04  1.4061112112451240e-04  1.4061112112421454e-04  1.4061112112395888e-04  1.4061112112374299e-04  1.4061112112356358e-04  1.4061112112341743e-04  1.4061112112329874e-04  1.4061112112320309e-04  1.4061112112312782e-04  1.4061112112306821e-04  1.4061112112302075e-04  1.4061112112298245e-04  1.4061112112295087e-04  1.4061112112292415e-04  1.4061112112290100e-04  1.4061112112288056e-04  1.4061112112286238e-04  1.4061112112284698e-04  1.4061112112283289e-04  1.4061112112282001e-04  1.4061112112281009e-04  1.4061112112280239e-04  1.4061112112279711e-04  1.4061112112279442e-04  2.8119236550366546e-04  2.8119236744693056e-04  1.4061112233768440e-04  1.4061112335046790e-04  1.4061112565342995e-04  1.4061113057215377e-04  1.4061114093570824e-04  1.4061116274367830e-04  1.4061120879574584e-04  1.4061130668388425e-04  1.4061151655778552e-04  1.4061197065606107e-04  1.4061296003222088e-04  1.4061511759709213e-04  1.4061977431465336e-04  1.4062953277498166e-04  1.4064843094765758e-04  1.4067880988926932e-04  1.4071649531786692e-04  1.4075190789078810e-04  1.4077505638481326e-04  1.4078125961651194e-04  1.4077252687136818e-04  1.4075385772306052e-04  1.4073176226984198e-04  1.4071030555744027e-04  1.4069095554822392e-04  1.4067405404433810e-04  1.4065965625639507e-04  1.4064773387553381e-04  1.4063816394845429e-04  1.4063071780299438e-04  1.4062508936660574e-04  1.4062094202375454e-04  1.4061795110861293e-04  1.4061583148123854e-04  1.4061434957422431e-04  1.4061332394199982e-04  1.4061261921593989e-04  1.4061213742461856e-04  1.4061180920776152e-04  1.4061158619978941e-04  1.4061143500238997e-04  1.4061133268807957e-04  1.4061126357289619e-04  1.4061121695445845e-04  1.4061118554673554e-04  1.4061116440255923e-04  1.4061115017271689e-04  1.4061114059651158e-04  1.4061113415185232e-04  1.4061112981564634e-04  1.4061112690053897e-04  1.4061112494435585e-04  1.4061112363571610e-04  1.4061112276426461e-04  1.4061112218750196e-04  1.4061112180869991e-04  1.4061112156216164e-04  1.4061112140333721e-04  1.4061112130213811e-04  1.4061112123837249e-04  1.4061112119861404e-04  1.4061112117403485e-04  1.4061112115890638e-04  1.4061112114956516e-04  1.4061112114370500e-04  1.4061112113989853e-04  1.4061112113727899e-04  1.4061112113533309e-04  1.4061112113376430e-04  1.4061112113241127e-04  1.4061112113119428e-04  1.4061112113007720e-04  1.4061112112904930e-04  1.4061112112811116e-04  1.4061112112726673e-04  1.4061112112651915e-04  1.4061112112586879e-04  1.4061112112531289e-04  1.4061112112484571e-04  1.4061112112445935e-04  1.4061112112414539e-04  1.4061112112389256e-04  1.4061112112369073e-04  1.4061112112353203e-04  1.4061112112340684e-04  1.4061112112330731e-04  1.4061112112322694e-04  1.4061112112316034e-04  1.4061112112310358e-04  1.4061112112305396e-04  1.4061112112300975e-04  1.4061112112297009e-04  1.4061112112293553e-04  1.4061112112290455e-04  1.4061112112287726e-04  1.4061112112285555e-04  1.4061112112283874e-04  1.4061112112282711e-04  1.4061112112282115e-04  2.8119236550371078e-04  2.8119236832166948e-04  1.4061112288807779e-04  1.4061112438471473e-04  1.4061112779097221e-04  1.4061113506546403e-04  1.4061115035893593e-04  1.4061118240204777e-04  1.4061124969363069e-04  1.4061139206682783e-04  1.4061169727910510e-04  1.4061236384913000e-04  1.4061385177647397e-04  1.4061724167809155e-04  1.4062506231884465e-04  1.4064312633906793e-04  1.4068290314895237e-04  1.4075320008646015e-04  1.4084555408907634e-04  1.4093702467220443e-04  1.4099780492576384e-04  1.4101169500030971e-04  1.4098616471501534e-04  1.4093595621927649e-04  1.4088097098321098e-04  1.4083064837432473e-04  1.4078656922643764e-04  1.4074847854779983e-04  1.4071621474123915e-04  1.4068968593999423e-04  1.4066859645129118e-04  1.4065237541851806e-04  1.4064026434043245e-04  1.4063144825529419e-04  1.4062516207591092e-04  1.4062075148629500e-04  1.4061769363084747e-04  1.4061559133524926e-04  1.4061415406651340e-04  1.4061317503475106e-04  1.4061250979542240e-04  1.4061205864405698e-04  1.4061175321806885e-04  1.4061154680138058e-04  1.4061140752544163e-04  1.4061131368213494e-04  1.4061125051378849e-04  1.4061120801502102e-04  1.4061117942395073e-04  1.4061116018497497e-04  1.4061114723647045e-04  1.4061113852355478e-04  1.4061113266685072e-04  1.4061112873892321e-04  1.4061112611445215e-04  1.4061112437039074e-04  1.4061112321964378e-04  1.4061112246700048e-04  1.4061112197972744e-04  1.4061112166780375e-04  1.4061112147050020e-04  1.4061112134717592e-04  1.4061112127092463e-04  1.4061112122416261e-04  1.4061112119556702e-04  1.4061112117796286e-04  1.4061112116688001e-04  1.4061112115958360e-04  1.4061112115443470e-04  1.4061112115047776e-04  1.4061112114717455e-04  1.4061112114424268e-04  1.4061112114155118e-04  1.4061112113905128e-04  1.4061112113673775e-04  1.4061112113462285e-04  1.4061112113272124e-04  1.4061112113104225e-04  1.4061112112958701e-04  1.4061112112834833e-04  1.4061112112731208e-04  1.4061112112645933e-04  1.4061112112576901e-04  1.4061112112521653e-04  1.4061112112477887e-04  1.4061112112443558e-04  1.4061112112416578e-04  1.4061112112395170e-04  1.4061112112377839e-04  1.4061112112363411e-04  1.4061112112351013e-04  1.4061112112340068e-04  1.4061112112330237e-04  1.4061112112321366e-04  1.4061112112313497e-04  1.4061112112306520e-04  1.4061112112300481e-04  1.4061112112295594e-04  1.4061112112291824e-04  1.4061112112289227e-04  1.4061112112287878e-04  2.8119236550380885e-04  2.8119236963386544e-04  1.4061112372481261e-04  1.4061112597908164e-04  1.4061113112629389e-04  1.4061114213477141e-04  1.4061116522594874e-04  1.4061121324478751e-04  1.4061131269908317e-04  1.4061151889923371e-04  1.4061195015858778e-04  1.4061286965616493e-04  1.4061488918096243e-04  1.4061947929413021e-04  1.4063019672017223e-04  1.4065563042431532e-04  2.1115585635078689e-04  2.8216283902250834e-04  2.8288518445911543e-04  2.8371665230228130e-04  2.1273326210292118e-04  1.4150183379735580e-04  1.4146856112584222e-04  1.4134780417345572e-04  1.4121397532110215e-04  1.4109784787254303e-04  1.4099812870810944e-04  1.4091215832346624e-04  1.4083951079279505e-04  1.4078020051273816e-04  1.4073356368720443e-04  1.4069815061610309e-04  1.4067205784437699e-04  1.4065330176125877e-04  1.4064007806751635e-04  1.4063088804309114e-04  1.4062456491288180e-04  1.4062024239789179e-04  1.4061729903368421e-04  1.4061529944379254e-04  1.4061394317017503e-04  1.4061302456213213e-04  1.4061240335336929e-04  1.4061198396436779e-04  1.4061170128436788e-04  1.4061151099931482e-04  1.4061138301244073e-04  1.4061129694696069e-04  1.4061123905650041e-04  1.4061120009826878e-04  1.4061117387196531e-04  1.4061115622163015e-04  1.4061114435901117e-04  1.4061113640868566e-04  1.4061113110455621e-04  1.4061112758844704e-04  1.4061112527674374e-04  1.4061112377190707e-04  1.4061112280337330e-04  1.4061112218769352e-04  1.4061112180133246e-04  1.4061112156190888e-04  1.4061112141516878e-04  1.4061112132590509e-04  1.4061112127164329e-04  1.4061112123828532e-04  1.4061112121714644e-04  1.4061112120297820e-04  1.4061112119267876e-04  1.4061112118447073e-04  1.4061112117738135e-04  1.4061112117092381e-04  1.4061112116489527e-04  1.4061112115924517e-04  1.4061112115399722e-04  1.4061112114919906e-04  1.4061112114489328e-04  1.4061112114110413e-04  1.4061112113783315e-04  1.4061112113506133e-04  1.4061112113275344e-04  1.4061112113086363e-04  1.4061112112934065e-04  1.4061112112812894e-04  1.4061112112717506e-04  1.4061112112642984e-04  1.4061112112584621e-04  1.4061112112538361e-04  1.4061112112500834e-04  1.4061112112469389e-04  1.4061112112442122e-04  1.4061112112417803e-04  1.4061112112395764e-04  1.4061112112375755e-04  1.4061112112357860e-04  1.4061112112342055e-04  1.4061112112328497e-04  1.4061112112317468e-04  1.4061112112308987e-04  1.4061112112303146e-04  1.4061112112300086e-04  2.8119236550401642e-04  2.8119237152799932e-04  1.4061112495240385e-04  1.4061112836668646e-04  1.4061113622404608e-04  1.4061115314615167e-04  1.4061118877414314e-04  1.4061126270474935e-04  1.4061141409996351e-04  1.4061172034567787e-04  1.4061233431414912e-04  1.4061356319755062e-04  1.4061603966067875e-04  1.4062113202256728e-04  2.1095337965974019e-04  2.8136891415608839e-04  4.2254586380867658e-04  8.0563151511208042e-01  9.6394754138776395e-01  9.7085604330841790e-01  9.8170292956331417e-01  4.3623677477946249e-04  2.1486770045015189e-04  1.4222591094830201e-04  1.4194828072448560e-04  1.4168995914566097e-04  1.4146617818629523e-04  1.4127155530356571e-04  1.4110726164082708e-04  1.4097437410842600e-04  1.4087128598217638e-04  1.4079416037427253e-04  1.4073815039014983e-04  1.4069841592348316e-04  1.4067071614447474e-04  1.4065163987252098e-04  1.4063860372636242e-04  1.4062973409553596e-04  1.4062371254078087e-04  1.4061962914323499e-04  1.4061686260160227e-04  1.4061499046527927e-04  1.4061372556419850e-04  1.4061287245412224e-04  1.4061229802792344e-04  1.4061191171696168e-04  1.4061165206108342e-04  1.4061147751369505e-04  1.4061136010503711e-04  1.4061128107001127e-04  1.4061122784399499e-04  1.4061119201476516e-04  1.4061116793941529e-04  1.4061115181899128e-04  1.4061114108412470e-04  1.4061113398911691e-04  1.4061112934394000e-04  1.4061112633652318e-04  1.4061112441380035e-04  1.4061112320108810e-04  1.4061112244671803e-04  1.4061112198360476e-04  1.4061112170240668e-04  1.4061112153275097e-04  1.4061112143016119e-04  1.4061112136705346e-04  1.4061112132664444e-04  1.4061112129892461e-04  1.4061112127806624e-04  1.4061112126079539e-04  1.4061112124538026e-04  1.4061112123101162e-04  1.4061112121741156e-04  1.4061112120457997e-04  1.4061112119263832e-04  1.4061112118173081e-04  1.4061112117196988e-04  1.4061112116341278e-04  1.4061112115605837e-04  1.4061112114985546e-04  1.4061112114471612e-04  1.4061112114052888e-04  1.4061112113717135e-04  1.4061112113451527e-04  1.4061112113243672e-04  1.4061112113082029e-04  1.4061112112955898e-04  1.4061112112856016e-04  1.4061112112774720e-04  1.4061112112706087e-04  1.4061112112645954e-04  1.4061112112591736e-04  1.4061112112542161e-04  1.4061112112496882e-04  1.4061112112456184e-04  1.4061112112420324e-04  1.4061112112389727e-04  1.4061112112364845e-04  1.4061112112345768e-04  1.4061112112332642e-04  1.4061112112325727e-04  2.8119236550445151e-04  2.8119237414544768e-04  1.4061112668177866e-04  1.4061113181588938e-04  1.4061114378952378e-04  1.4061116995499426e-04  1.4061122581956992e-04  1.4061134304320789e-04  1.4061158428828026e-04  1.4061206887384174e-04  1.4061301220556454e-04  1.4061476433092668e-04  1.4061773645172154e-04  2.1093213983059642e-04  4.2190185254950373e-04  5.4986914039031676e-01  5.6234084392348627e-01  5.0000009599429607e-01  5.0000009628192477e-01  5.0000009638513976e-01  5.0000009622263919e-01  9.8688792465453412e-01  9.9305593454475904e-01  2.1826887291605745e-04  1.4353204966844040e-04  1.4301086498725939e-04  1.4250874297232395e-04  1.4206294218907541e-04  1.4168828171151274e-04  1.4138959570196105e-04  1.4116190875986464e-04  1.4099450303934997e-04  1.4087485040712225e-04  1.4079112620413287e-04  1.4073341027139713e-04  1.4069399846399161e-04  1.4066722345893468e-04  1.4064907227988766e-04  1.4063677400607709e-04  1.4062844252854894e-04  1.4062280131681666e-04  1.4061898629572680e-04  1.4061641088253905e-04  1.4061467572425761e-04  1.4061350866836816e-04  1.4061272453828077e-04  1.4061219780375612e-04  1.4061184377510950e-04  1.4061160557964016e-04  1.4061144515382606e-04  1.4061133705833514e-04  1.4061126427567536e-04  1.4061121538655805e-04  1.4061118269138864e-04  1.4061116096984502e-04  1.4061114666491078e-04  1.4061113734544620e-04  1.4061113134963366e-04  1.4061112754540716e-04  1.4061112516700655e-04  1.4061112370187132e-04  1.4061112281158015e-04  1.4061112227634263e-04  1.4061112195605806e-04  1.4061112176319145e-04  1.4061112164414656e-04  1.4061112156675253e-04  1.4061112151209174e-04  1.4061112146932536e-04  1.4061112143250160e-04  1.4061112139860724e-04  1.4061112136637540e-04  1.4061112133553026e-04  1.4061112130629342e-04  1.4061112127906989e-04  1.4061112125425302e-04  1.4061112123212196e-04  1.4061112121280372e-04  1.4061112119627907e-04  1.4061112118241026e-04  1.4061112117097710e-04  1.4061112116171032e-04  1.4061112115431893e-04  1.4061112114850557e-04  1.4061112114398334e-04  1.4061112114048446e-04  1.4061112113776430e-04  1.4061112113561110e-04  1.4061112113385109e-04  1.4061112113235196e-04  1.4061112113102303e-04  1.4061112112981081e-04  1.4061112112869227e-04  1.4061112112766504e-04  1.4061112112673883e-04  1.4061112112592460e-04  1.4061112112523288e-04  1.4061112112467177e-04  1.4061112112424332e-04  1.4061112112394915e-04  1.4061112112379335e-04  2.8119236550535828e-04  2.8119237756664737e-04  1.4061112899065096e-04  1.4061113654459097e-04  1.4061115447455041e-04  1.4061119448824220e-04  1.4061128196588934e-04  1.4061147029301806e-04  1.4061186832499837e-04  1.4061268834127935e-04  1.4061431318005362e-04  1.4061727310906932e-04  1.4062139173531027e-04  2.8124871208444458e-04  5.2830127443700792e-01  5.3753468311753883e-01  5.0000009621632036e-01  5.0000009682704816e-01  5.0000009747536989e-01  5.0000009809416157e-01  5.0000009770777532e-01  5.0000009776135046e-01  9.95143234706