<?xml version="1.0"?>
<VTKFile type="UnstructuredGrid"  version="0.1"  >
<UnstructuredGrid>
<Piece  NumberOfPoints="5151" NumberOfCells="10000">
<Points>
<DataArray  type="Float64"  NumberOfComponents="3"  format="ascii">0 0 0  0.02 0 0  0.04 0 0  0.06 0 0  0.08 0 0  0.1 0 0  0.12 0 0  0.14 0 0  0.16 0 0  0.18 0 0  0.2 0 0  0.22 0 0  0.24 0 0  0.26 0 0  0.28 0 0  0.3 0 0  0.32 0 0  0.34 0 0  0.36 0 0  0.38 0 0  0.4 0 0  0.42 0 0  0.44 0 0  0.46 0 0  0.48 0 0  0.5 0 0  0.52 0 0  0.54 0 0  0.5600000000000001 0 0  0.58 0 0  0.6 0 0  0.62 0 0  0.64 0 0  0.66 0 0  0.68 0 0  0.7 0 0  0.72 0 0  0.74 0 0  0.76 0 0  0.78 0 0  0.8 0 0  0.82 0 0  0.84 0 0  0.86 0 0  0.88 0 0  0.9 0 0  0.92 0 0  0.9399999999999999 0 0  0.96 0 0  0.98 0 0  1 0 0  1.02 0 0  1.04 0 0  1.06 0 0  1.08 0 0  1.1 0 0  1.12 0 0  1.14 0 0  1.16 0 0  1.18 0 0  1.2 0 0  1.22 0 0  1.24 0 0  1.26 0 0  1.28 0 0  1.3 0 0  1.32 0 0  1.34 0 0  1.36 0 0  1.38 0 0  1.4 0 0  1.42 0 0  1.44 0 0  1.46 0 0  1.48 0 0  1.5 0 0  1.52 0 0  1.54 0 0  1.56 0 0  1.58 0 0  1.6 0 0  1.62 0 0  1.64 0 0  1.66 0 0  1.68 0 0  1.7 0 0  1.72 0 0  1.74 0 0  1.76 0 0  1.78 0 0  1.8 0 0  1.82 0 0  1.84 0 0  1.86 0 0  1.88 0 0  1.9 0 0  1.92 0 0  1.94 0 0  1.96 0 0  1.98 0 0  2 0 0  0 0.02 0  0.02 0.02 0  0.04 0.02 0  0.06 0.02 0  0.08 0.02 0  0.1 0.02 0  0.12 0.02 0  0.14 0.02 0  0.16 0.02 0  0.18 0.02 0  0.2 0.02 0  0.22 0.02 0  0.24 0.02 0  0.26 0.02 0  0.28 0.02 0  0.3 0.02 0  0.32 0.02 0  0.34 0.02 0  0.36 0.02 0  0.38 0.02 0  0.4 0.02 0  0.42 0.02 0  0.44 0.02 0  0.46 0.02 0  0.48 0.02 0  0.5 0.02 0  0.52 0.02 0  0.54 0.02 0  0.5600000000000001 0.02 0  0.58 0.02 0  0.6 0.02 0  0.62 0.02 0  0.64 0.02 0  0.66 0.02 0  0.68 0.02 0  0.7 0.02 0  0.72 0.02 0  0.74 0.02 0  0.76 0.02 0  0.78 0.02 0  0.8 0.02 0  0.82 0.02 0  0.84 0.02 0  0.86 0.02 0  0.88 0.02 0  0.9 0.02 0  0.92 0.02 0  0.9399999999999999 0.02 0  0.96 0.02 0  0.98 0.02 0  1 0.02 0  1.02 0.02 0  1.04 0.02 0  1.06 0.02 0  1.08 0.02 0  1.1 0.02 0  1.12 0.02 0  1.14 0.02 0  1.16 0.02 0  1.18 0.02 0  1.2 0.02 0  1.22 0.02 0  1.24 0.02 0  1.26 0.02 0  1.28 0.02 0  1.3 0.02 0  1.32 0.02 0  1.34 0.02 0  1.36 0.02 0  1.38 0.02 0  1.4 0.02 0  1.42 0.02 0  1.44 0.02 0  1.46 0.02 0  1.48 0.02 0  1.5 0.02 0  1.52 0.02 0  1.54 0.02 0  1.56 0.02 0  1.58 0.02 0  1.6 0.02 0  1.62 0.02 0  1.64 0.02 0  1.66 0.02 0  1.68 0.02 0  1.7 0.02 0  1.72 0.02 0  1.74 0.02 0  1.76 0.02 0  1.78 0.02 0  1.8 0.02 0  1.82 0.02 0  1.84 0.02 0  1.86 0.02 0  1.88 0.02 0  1.9 0.02 0  1.92 0.02 0  1.94 0.02 0  1.96 0.02 0  1.98 0.02 0  2 0.02 0  0 0.04 0  0.02 0.04 0  0.04 0.04 0  0.06 0.04 0  0.08 0.04 0  0.1 0.04 0  0.12 0.04 0  0.14 0.04 0  0.16 0.04 0  0.18 0.04 0  0.2 0.04 0  0.22 0.04 0  0.24 0.04 0  0.26 0.04 0  0.28 0.04 0  0.3 0.04 0  0.32 0.04 0  0.34 0.04 0  0.36 0.04 0  0.38 0.04 0  0.4 0.04 0  0.42 0.04 0  0.44 0.04 0  0.46 0.04 0  0.48 0.04 0  0.5 0.04 0  0.52 0.04 0  0.54 0.04 0  0.5600000000000001 0.04 0  0.58 0.04 0  0.6 0.04 0  0.62 0.04 0  0.64 0.04 0  0.66 0.04 0  0.68 0.04 0  0.7 0.04 0  0.72 0.04 0  0.74 0.04 0  0.76 0.04 0  0.78 0.04 0  0.8 0.04 0  0.82 0.04 0  0.84 0.04 0  0.86 0.04 0  0.88 0.04 0  0.9 0.04 0  0.92 0.04 0  0.9399999999999999 0.04 0  0.96 0.04 0  0.98 0.04 0  1 0.04 0  1.02 0.04 0  1.04 0.04 0  1.06 0.04 0  1.08 0.04 0  1.1 0.04 0  1.12 0.04 0  1.14 0.04 0  1.16 0.04 0  1.18 0.04 0  1.2 0.04 0  1.22 0.04 0  1.24 0.04 0  1.26 0.04 0  1.28 0.04 0  1.3 0.04 0  1.32 0.04 0  1.34 0.04 0  1.36 0.04 0  1.38 0.04 0  1.4 0.04 0  1.42 0.04 0  1.44 0.04 0  1.46 0.04 0  1.48 0.04 0  1.5 0.04 0  1.52 0.04 0  1.54 0.04 0  1.56 0.04 0  1.58 0.04 0  1.6 0.04 0  1.62 0.04 0  1.64 0.04 0  1.66 0.04 0  1.68 0.04 0  1.7 0.04 0  1.72 0.04 0  1.74 0.04 0  1.76 0.04 0  1.78 0.04 0  1.8 0.04 0  1.82 0.04 0  1.84 0.04 0  1.86 0.04 0  1.88 0.04 0  1.9 0.04 0  1.92 0.04 0  1.94 0.04 0  1.96 0.04 0  1.98 0.04 0  2 0.04 0  0 0.06 0  0.02 0.06 0  0.04 0.06 0  0.06 0.06 0  0.08 0.06 0  0.1 0.06 0  0.12 0.06 0  0.14 0.06 0  0.16 0.06 0  0.18 0.06 0  0.2 0.06 0  0.22 0.06 0  0.24 0.06 0  0.26 0.06 0  0.28 0.06 0  0.3 0.06 0  0.32 0.06 0  0.34 0.06 0  0.36 0.06 0  0.38 0.06 0  0.4 0.06 0  0.42 0.06 0  0.44 0.06 0  0.46 0.06 0  0.48 0.06 0  0.5 0.06 0  0.52 0.06 0  0.54 0.06 0  0.5600000000000001 0.06 0  0.58 0.06 0  0.6 0.06 0  0.62 0.06 0  0.64 0.06 0  0.66 0.06 0  0.68 0.06 0  0.7 0.06 0  0.72 0.06 0  0.74 0.06 0  0.76 0.06 0  0.78 0.06 0  0.8 0.06 0  0.82 0.06 0  0.84 0.06 0  0.86 0.06 0  0.88 0.06 0  0.9 0.06 0  0.92 0.06 0  0.9399999999999999 0.06 0  0.96 0.06 0  0.98 0.06 0  1 0.06 0  1.02 0.06 0  1.04 0.06 0  1.06 0.06 0  1.08 0.06 0  1.1 0.06 0  1.12 0.06 0  1.14 0.06 0  1.16 0.06 0  1.18 0.06 0  1.2 0.06 0  1.22 0.06 0  1.24 0.06 0  1.26 0.06 0  1.28 0.06 0  1.3 0.06 0  1.32 0.06 0  1.34 0.06 0  1.36 0.06 0  1.38 0.06 0  1.4 0.06 0  1.42 0.06 0  1.44 0.06 0  1.46 0.06 0  1.48 0.06 0  1.5 0.06 0  1.52 0.06 0  1.54 0.06 0  1.56 0.06 0  1.58 0.06 0  1.6 0.06 0  1.62 0.06 0  1.64 0.06 0  1.66 0.06 0  1.68 0.06 0  1.7 0.06 0  1.72 0.06 0  1.74 0.06 0  1.76 0.06 0  1.78 0.06 0  1.8 0.06 0  1.82 0.06 0  1.84 0.06 0  1.86 0.06 0  1.88 0.06 0  1.9 0.06 0  1.92 0.06 0  1.94 0.06 0  1.96 0.06 0  1.98 0.06 0  2 0.06 0  0 0.08 0  0.02 0.08 0  0.04 0.08 0  0.06 0.08 0  0.08 0.08 0  0.1 0.08 0  0.12 0.08 0  0.14 0.08 0  0.16 0.08 0  0.18 0.08 0  0.2 0.08 0  0.22 0.08 0  0.24 0.08 0  0.26 0.08 0  0.28 0.08 0  0.3 0.08 0  0.32 0.08 0  0.34 0.08 0  0.36 0.08 0  0.38 0.08 0  0.4 0.08 0  0.42 0.08 0  0.44 0.08 0  0.46 0.08 0  0.48 0.08 0  0.5 0.08 0  0.52 0.08 0  0.54 0.08 0  0.5600000000000001 0.08 0  0.58 0.08 0  0.6 0.08 0  0.62 0.08 0  0.64 0.08 0  0.66 0.08 0  0.68 0.08 0  0.7 0.08 0  0.72 0.08 0  0.74 0.08 0  0.76 0.08 0  0.78 0.08 0  0.8 0.08 0  0.82 0.08 0  0.84 0.08 0  0.86 0.08 0  0.88 0.08 0  0.9 0.08 0  0.92 0.08 0  0.9399999999999999 0.08 0  0.96 0.08 0  0.98 0.08 0  1 0.08 0  1.02 0.08 0  1.04 0.08 0  1.06 0.08 0  1.08 0.08 0  1.1 0.08 0  1.12 0.08 0  1.14 0.08 0  1.16 0.08 0  1.18 0.08 0  1.2 0.08 0  1.22 0.08 0  1.24 0.08 0  1.26 0.08 0  1.28 0.08 0  1.3 0.08 0  1.32 0.08 0  1.34 0.08 0  1.36 0.08 0  1.38 0.08 0  1.4 0.08 0  1.42 0.08 0  1.44 0.08 0  1.46 0.08 0  1.48 0.08 0  1.5 0.08 0  1.52 0.08 0  1.54 0.08 0  1.56 0.08 0  1.58 0.08 0  1.6 0.08 0  1.62 0.08 0  1.64 0.08 0  1.66 0.08 0  1.68 0.08 0  1.7 0.08 0  1.72 0.08 0  1.74 0.08 0  1.76 0.08 0  1.78 0.08 0  1.8 0.08 0  1.82 0.08 0  1.84 0.08 0  1.86 0.08 0  1.88 0.08 0  1.9 0.08 0  1.92 0.08 0  1.94 0.08 0  1.96 0.08 0  1.98 0.08 0  2 0.08 0  0 0.1 0  0.02 0.1 0  0.04 0.1 0  0.06 0.1 0  0.08 0.1 0  0.1 0.1 0  0.12 0.1 0  0.14 0.1 0  0.16 0.1 0  0.18 0.1 0  0.2 0.1 0  0.22 0.1 0  0.24 0.1 0  0.26 0.1 0  0.28 0.1 0  0.3 0.1 0  0.32 0.1 0  0.34 0.1 0  0.36 0.1 0  0.38 0.1 0  0.4 0.1 0  0.42 0.1 0  0.44 0.1 0  0.46 0.1 0  0.48 0.1 0  0.5 0.1 0  0.52 0.1 0  0.54 0.1 0  0.5600000000000001 0.1 0  0.58 0.1 0  0.6 0.1 0  0.62 0.1 0  0.64 0.1 0  0.66 0.1 0  0.68 0.1 0  0.7 0.1 0  0.72 0.1 0  0.74 0.1 0  0.76 0.1 0  0.78 0.1 0  0.8 0.1 0  0.82 0.1 0  0.84 0.1 0  0.86 0.1 0  0.88 0.1 0  0.9 0.1 0  0.92 0.1 0  0.9399999999999999 0.1 0  0.96 0.1 0  0.98 0.1 0  1 0.1 0  1.02 0.1 0  1.04 0.1 0  1.06 0.1 0  1.08 0.1 0  1.1 0.1 0  1.12 0.1 0  1.14 0.1 0  1.16 0.1 0  1.18 0.1 0  1.2 0.1 0  1.22 0.1 0  1.24 0.1 0  1.26 0.1 0  1.28 0.1 0  1.3 0.1 0  1.32 0.1 0  1.34 0.1 0  1.36 0.1 0  1.38 0.1 0  1.4 0.1 0  1.42 0.1 0  1.44 0.1 0  1.46 0.1 0  1.48 0.1 0  1.5 0.1 0  1.52 0.1 0  1.54 0.1 0  1.56 0.1 0  1.58 0.1 0  1.6 0.1 0  1.62 0.1 0  1.64 0.1 0  1.66 0.1 0  1.68 0.1 0  1.7 0.1 0  1.72 0.1 0  1.74 0.1 0  1.76 0.1 0  1.78 0.1 0  1.8 0.1 0  1.82 0.1 0  1.84 0.1 0  1.86 0.1 0  1.88 0.1 0  1.9 0.1 0  1.92 0.1 0  1.94 0.1 0  1.96 0.1 0  1.98 0.1 0  2 0.1 0  0 0.12 0  0.02 0.12 0  0.04 0.12 0  0.06 0.12 0  0.08 0.12 0  0.1 0.12 0  0.12 0.12 0  0.14 0.12 0  0.16 0.12 0  0.18 0.12 0  0.2 0.12 0  0.22 0.12 0  0.24 0.12 0  0.26 0.12 0  0.28 0.12 0  0.3 0.12 0  0.32 0.12 0  0.34 0.12 0  0.36 0.12 0  0.38 0.12 0  0.4 0.12 0  0.42 0.12 0  0.44 0.12 0  0.46 0.12 0  0.48 0.12 0  0.5 0.12 0  0.52 0.12 0  0.54 0.12 0  0.5600000000000001 0.12 0  0.58 0.12 0  0.6 0.12 0  0.62 0.12 0  0.64 0.12 0  0.66 0.12 0  0.68 0.12 0  0.7 0.12 0  0.72 0.12 0  0.74 0.12 0  0.76 0.12 0  0.78 0.12 0  0.8 0.12 0  0.82 0.12 0  0.84 0.12 0  0.86 0.12 0  0.88 0.12 0  0.9 0.12 0  0.92 0.12 0  0.9399999999999999 0.12 0  0.96 0.12 0  0.98 0.12 0  1 0.12 0  1.02 0.12 0  1.04 0.12 0  1.06 0.12 0  1.08 0.12 0  1.1 0.12 0  1.12 0.12 0  1.14 0.12 0  1.16 0.12 0  1.18 0.12 0  1.2 0.12 0  1.22 0.12 0  1.24 0.12 0  1.26 0.12 0  1.28 0.12 0  1.3 0.12 0  1.32 0.12 0  1.34 0.12 0  1.36 0.12 0  1.38 0.12 0  1.4 0.12 0  1.42 0.12 0  1.44 0.12 0  1.46 0.12 0  1.48 0.12 0  1.5 0.12 0  1.52 0.12 0  1.54 0.12 0  1.56 0.12 0  1.58 0.12 0  1.6 0.12 0  1.62 0.12 0  1.64 0.12 0  1.66 0.12 0  1.68 0.12 0  1.7 0.12 0  1.72 0.12 0  1.74 0.12 0  1.76 0.12 0  1.78 0.12 0  1.8 0.12 0  1.82 0.12 0  1.84 0.12 0  1.86 0.12 0  1.88 0.12 0  1.9 0.12 0  1.92 0.12 0  1.94 0.12 0  1.96 0.12 0  1.98 0.12 0  2 0.12 0  0 0.14 0  0.02 0.14 0  0.04 0.14 0  0.06 0.14 0  0.08 0.14 0  0.1 0.14 0  0.12 0.14 0  0.14 0.14 0  0.16 0.14 0  0.18 0.14 0  0.2 0.14 0  0.22 0.14 0  0.24 0.14 0  0.26 0.14 0  0.28 0.14 0  0.3 0.14 0  0.32 0.14 0  0.34 0.14 0  0.36 0.14 0  0.38 0.14 0  0.4 0.14 0  0.42 0.14 0  0.44 0.14 0  0.46 0.14 0  0.48 0.14 0  0.5 0.14 0  0.52 0.14 0  0.54 0.14 0  0.5600000000000001 0.14 0  0.58 0.14 0  0.6 0.14 0  0.62 0.14 0  0.64 0.14 0  0.66 0.14 0  0.68 0.14 0  0.7 0.14 0  0.72 0.14 0  0.74 0.14 0  0.76 0.14 0  0.78 0.14 0  0.8 0.14 0  0.82 0.14 0  0.84 0.14 0  0.86 0.14 0  0.88 0.14 0  0.9 0.14 0  0.92 0.14 0  0.9399999999999999 0.14 0  0.96 0.14 0  0.98 0.14 0  1 0.14 0  1.02 0.14 0  1.04 0.14 0  1.06 0.14 0  1.08 0.14 0  1.1 0.14 0  1.12 0.14 0  1.14 0.14 0  1.16 0.14 0  1.18 0.14 0  1.2 0.14 0  1.22 0.14 0  1.24 0.14 0  1.26 0.14 0  1.28 0.14 0  1.3 0.14 0  1.32 0.14 0  1.34 0.14 0  1.36 0.14 0  1.38 0.14 0  1.4 0.14 0  1.42 0.14 0  1.44 0.14 0  1.46 0.14 0  1.48 0.14 0  1
[...]
<PointData  Scalars="sols[i]"> 
<DataArray  type="Float64"  Name="sols[i]"  format="ascii">3.6548924535088819e-04  2.4365189431225522e-04  2.4365189524971193e-04  2.4365189734481765e-04  2.4365190180178890e-04  2.4365191114812917e-04  2.4365193060914395e-04  2.4365197085308179e-04  2.4365205332519871e-04  2.4365222021189816e-04  2.4365255198563940e-04  2.4365319551183505e-04  2.4365440197070124e-04  2.4365656002626974e-04  2.4366017679383465e-04  2.4366571037617456e-04  2.4367317520488524e-04  2.4368174183351301e-04  2.4368980600137410e-04  2.4369561695942478e-04  2.4369807715269248e-04  2.4369711751481387e-04  2.4369349028146469e-04  2.4368832680340572e-04  2.4368264527606994e-04  2.4367711747440778e-04  2.4367209626299590e-04  2.4366773076925510e-04  2.4366405930148770e-04  2.4366106012289071e-04  2.4365867615700588e-04  2.4365682952147194e-04  2.4365543295039896e-04  2.4365439931383948e-04  2.4365364861708797e-04  2.4365311209390879e-04  2.4365273368252534e-04  2.4365246960150386e-04  2.4365228682542329e-04  2.4365216112056710e-04  2.4365207508230031e-04  2.4365201641190175e-04  2.4365197652139402e-04  2.4365194946465165e-04  2.4365193114951584e-04  2.4365191877229035e-04  2.4365191041892563e-04  2.4365190478683481e-04  2.4365190099214488e-04  2.4365189843669641e-04  2.4365189671659372e-04  2.4365189555955100e-04  2.4365189478214774e-04  2.4365189426080853e-04  2.4365189391219692e-04  2.4365189368002804e-04  2.4365189352622876e-04  2.4365189342500959e-04  2.4365189335890953e-04  2.4365189331611856e-04  2.4365189328867410e-04  2.4365189327123780e-04  2.4365189326025662e-04  2.4365189325338755e-04  2.4365189324910235e-04  2.4365189324641667e-04  2.4365189324470553e-04  2.4365189324357823e-04  2.4365189324279717e-04  2.4365189324221408e-04  2.4365189324174836e-04  2.4365189324135447e-04  2.4365189324100715e-04  2.4365189324069490e-04  2.4365189324041301e-04  2.4365189324015990e-04  2.4365189323993520e-04  2.4365189323973847e-04  2.4365189323956906e-04  2.4365189323942535e-04  2.4365189323930533e-04  2.4365189323920835e-04  2.4365189323912714e-04  2.4365189323906187e-04  2.4365189323901048e-04  2.4365189323896966e-04  2.4365189323893714e-04  2.4365189323891074e-04  2.4365189323888916e-04  2.4365189323887105e-04  2.4365189323885544e-04  2.4365189323884194e-04  2.4365189323882986e-04  2.4365189323882113e-04  2.4365189323881088e-04  2.4365189323880210e-04  2.4365189323879570e-04  2.4365189323879072e-04  2.4365189323878735e-04  2.4365189323878578e-04  7.3103569682808210e-04  2.4365189410781014e-04  1.2181905094035779e-04  1.2181905140001346e-04  1.2181905244810863e-04  1.2181905469301353e-04  1.2181905942671995e-04  1.2181906935121491e-04  1.2181909006706975e-04  1.2181913306402685e-04  1.2181922156282904e-04  1.2181940144557725e-04  1.2181976033876532e-04  1.2182045712573082e-04  1.2182175713318691e-04  1.2182404461597937e-04  1.2182773015179113e-04  1.2183293485635018e-04  1.2183910661139056e-04  1.2184503102663044e-04  1.2184933286557093e-04  1.2185115281148576e-04  1.2185045486064395e-04  1.2184782516258395e-04  1.2184413483928323e-04  1.2184013501233135e-04  1.2183628885967823e-04  1.2183282131295658e-04  1.2182981975028840e-04  1.2182730258150642e-04  1.2182525155654843e-04  1.2182362582166260e-04  1.2182237054149210e-04  1.2182142450895412e-04  1.2182072683925620e-04  1.2182022191624322e-04  1.2181986221763923e-04  1.2181960924893337e-04  1.2181943313887718e-04  1.2181931148961877e-04  1.2181922795416103e-04  1.2181917084619028e-04  1.2181913193876992e-04  1.2181910550385544e-04  1.2181908758392517e-04  1.2181907545948207e-04  1.2181906726926330e-04  1.2181906174361305e-04  1.2181905801905962e-04  1.2181905551006441e-04  1.2181905382061686e-04  1.2181905268348004e-04  1.2181905191859080e-04  1.2181905140469821e-04  1.2181905106012592e-04  1.2181905082978922e-04  1.2181905067647396e-04  1.2181905057499559e-04  1.2181905050828880e-04  1.2181905046479199e-04  1.2181905043668595e-04  1.2181905041869914e-04  1.2181905040729981e-04  1.2181905040013961e-04  1.2181905039567248e-04  1.2181905039289229e-04  1.2181905039115249e-04  1.2181905039004390e-04  1.2181905038931155e-04  1.2181905038880051e-04  1.2181905038841662e-04  1.2181905038810629e-04  1.2181905038784139e-04  1.2181905038760618e-04  1.2181905038739362e-04  1.2181905038720104e-04  1.2181905038702784e-04  1.2181905038687399e-04  1.2181905038673930e-04  1.2181905038662337e-04  1.2181905038652512e-04  1.2181905038644318e-04  1.2181905038637650e-04  1.2181905038632191e-04  1.2181905038627743e-04  1.2181905038624266e-04  1.2181905038621501e-04  1.2181905038619300e-04  1.2181905038617527e-04  1.2181905038616072e-04  1.2181905038614849e-04  1.2181905038613795e-04  1.2181905038612871e-04  1.2181905038612052e-04  1.2181905038611399e-04  1.2181905038610759e-04  1.2181905038610149e-04  1.2181905038609705e-04  1.2181905038609355e-04  1.2181905038609117e-04  1.2181905038608992e-04  2.4365189323878920e-04  2.4365189435872510e-04  1.2181905109300535e-04  1.2181905168580484e-04  1.2181905304370735e-04  1.2181905596655814e-04  1.2181906217395862e-04  1.2181907532251567e-04  1.2181910317277233e-04  1.2181916217258450e-04  1.2181928703588633e-04  1.2181955030598438e-04  1.2182010067160814e-04  1.2182123251010439e-04  1.2182349438221853e-04  1.2182780036095535e-04  1.2183532382640429e-04  1.2184662636722615e-04  1.2186041629326625e-04  1.2187358546263198e-04  1.2188266492076246e-04  1.2188576117149803e-04  1.2188319991693710e-04  1.2187664832687879e-04  1.2186831547619220e-04  1.2185983289793466e-04  1.2185200306601254e-04  1.2184511619354701e-04  1.2183924493921255e-04  1.2183437727532846e-04  1.2183045417934671e-04  1.2182738046259922e-04  1.2182503620028492e-04  1.2182329152356526e-04  1.2182202054589260e-04  1.2182111115814138e-04  1.2182046991145911e-04  1.2182002286850177e-04  1.2181971388431105e-04  1.2181950166725332e-04  1.2181935657912385e-04  1.2181925772195015e-04  1.2181919054294891e-04  1.2181914499176993e-04  1.2181911416486572e-04  1.2181909333754517e-04  1.2181907928558608e-04  1.2181906981467456e-04  1.2181906343560194e-04  1.2181905914055704e-04  1.2181905624928911e-04  1.2181905430357399e-04  1.2181905299509657e-04  1.2181905211641360e-04  1.2181905152780232e-04  1.2181905113497313e-04  1.2181905087415077e-04  1.2181905070211415e-04  1.2181905058954013e-04  1.2181905051654839e-04  1.2181905046969703e-04  1.2181905043993959e-04  1.2181905042123357e-04  1.2181905040958049e-04  1.2181905040236469e-04  1.2181905039789721e-04  1.2181905039510330e-04  1.2181905039330979e-04  1.2181905039210282e-04  1.2181905039123403e-04  1.2181905039055653e-04  1.2181905038998866e-04  1.2181905038948868e-04  1.2181905038903567e-04  1.2181905038862151e-04  1.2181905038824439e-04  1.2181905038790490e-04  1.2181905038760387e-04  1.2181905038734139e-04  1.2181905038711639e-04  1.2181905038692671e-04  1.2181905038676944e-04  1.2181905038664164e-04  1.2181905038653810e-04  1.2181905038645489e-04  1.2181905038638959e-04  1.2181905038633807e-04  1.2181905038629706e-04  1.2181905038626402e-04  1.2181905038623675e-04  1.2181905038621363e-04  1.2181905038619360e-04  1.2181905038617579e-04  1.2181905038615993e-04  1.2181905038614649e-04  1.2181905038613407e-04  1.2181905038612277e-04  1.2181905038611402e-04  1.2181905038610727e-04  1.2181905038610258e-04  1.2181905038610017e-04  2.4365189323880606e-04  2.4365189477718708e-04  1.2181905135425145e-04  1.2181905217726390e-04  1.2181905406570618e-04  1.2181905814227434e-04  1.2181906683352990e-04  1.2181908534971580e-04  1.2181912492823047e-04  1.2181920999089599e-04  1.2181939401153890e-04  1.2181979458925082e-04  1.2182066969152491e-04  1.2182257702685178e-04  1.2182668235597845e-04  1.2183526215230636e-04  1.2185191992995919e-04  1.2187904036691131e-04  1.2191339582005520e-04  1.2194628682709658e-04  1.2196791471733099e-04  1.2197357289028143e-04  1.2196518944957165e-04  1.2194761578779501e-04  1.2192703814372521e-04  1.2190727705833164e-04  1.2188966915006665e-04  1.2187446312306841e-04  1.2186163175325728e-04  1.2185108349869995e-04  1.2184266184640542e-04  1.2183613455300568e-04  1.2183121442736015e-04  1.2182759624217775e-04  1.2182499063314258e-04  1.2182314590180197e-04  1.2182185706132833e-04  1.2182096544403651e-04  1.2182035295238617e-04  1.2181993425008569e-04  1.2181964899028581e-04  1.2181945512810286e-04  1.2181932364828591e-04  1.2181923464072472e-04  1.2181917448810312e-04  1.2181913389757676e-04  1.2181910654060772e-04  1.2181908811783151e-04  1.2181907571665013e-04  1.2181906736971631e-04  1.2181906175162750e-04  1.2181905797108164e-04  1.2181905542910120e-04  1.2181905372290008e-04  1.2181905258112303e-04  1.2181905182047598e-04  1.2181905131680314e-04  1.2181905098582817e-04  1.2181905077030230e-04  1.2181905063139101e-04  1.2181905054285116e-04  1.2181905048705820e-04  1.2181905045228166e-04  1.2181905043080022e-04  1.2181905041759751e-04  1.2181905040946201e-04  1.2181905040437014e-04  1.2181905040106918e-04  1.2181905039879869e-04  1.2181905039710926e-04  1.2181905039574236e-04  1.2181905039455824e-04  1.2181905039348898e-04  1.2181905039250460e-04  1.2181905039159715e-04  1.2181905039076828e-04  1.2181905039002219e-04  1.2181905038936210e-04  1.2181905038878850e-04  1.2181905038829898e-04  1.2181905038788839e-04  1.2181905038754958e-04  1.2181905038727498e-04  1.2181905038705443e-04  1.2181905038687892e-04  1.2181905038674128e-04  1.2181905038663297e-04  1.2181905038654707e-04  1.2181905038647774e-04  1.2181905038642033e-04  1.2181905038637122e-04  1.2181905038632820e-04  1.2181905038628974e-04  1.2181905038625513e-04  1.2181905038622482e-04  1.2181905038619755e-04  1.2181905038617359e-04  1.2181905038615435e-04  1.2181905038613952e-04  1.2181905038612928e-04  1.2181905038612396e-04  2.4365189323884639e-04  2.4365189542484300e-04  1.2181905176327491e-04  1.2181905295021944e-04  1.2181905567522735e-04  1.2181906155781265e-04  1.2181907408400107e-04  1.2181910071196595e-04  1.2181915751488986e-04  1.2181927962402579e-04  1.2181954526404847e-04  1.2182013216996797e-04  1.2182145118899097e-04  1.2182445936079021e-04  1.2183137092406195e-04  1.2184724659069498e-04  1.2188228251613407e-04  1.2194514849714770e-04  1.2202969952074984e-04  1.2211484982868208e-04  1.2217132185562130e-04  1.2218350617457645e-04  1.2215880081264995e-04  1.2211145763660753e-04  1.2206022954935758e-04  1.2201392904883035e-04  1.2197391659059329e-04  1.2193975742284756e-04  1.2191109662635285e-04  1.2188769190460102e-04  1.2186917617456260e-04  1.2185498330477166e-04  1.2184441183953114e-04  1.2183672931138708e-04  1.2183125768570679e-04  1.2182742159673544e-04  1.2182476339266452e-04  1.2182293641358835e-04  1.2182168753426285e-04  1.2182083680803128e-04  1.2182025865139622e-04  1.2181986643844457e-04  1.2181960080494714e-04  1.2181942119699550e-04  1.2181929995155308e-04  1.2181921822100903e-04  1.2181916318599882e-04  1.2181912614923617e-04  1.2181910122826401e-04  1.2181908445697311e-04  1.2181907316827223e-04  1.2181906557135494e-04  1.2181906046390421e-04  1.2181905703755841e-04  1.2181905474736957e-04  1.2181905322473482e-04  1.2181905221953719e-04  1.2181905156170443e-04  1.2181905113557042e-04  1.2181905086265408e-04  1.2181905068997544e-04  1.2181905058204781e-04  1.2181905051535154e-04  1.2181905047449701e-04  1.2181905044956155e-04  1.2181905043424988e-04  1.2181905042463667e-04  1.2181905041832011e-04  1.2181905041386219e-04  1.2181905041042695e-04  1.2181905040754617e-04  1.2181905040497678e-04  1.2181905040260853e-04  1.2181905040040274e-04  1.2181905039835818e-04  1.2181905039648804e-04  1.2181905039480685e-04  1.2181905039332369e-04  1.2181905039203989e-04  1.2181905039094893e-04  1.2181905039003826e-04  1.2181905038929057e-04  1.2181905038868696e-04  1.2181905038820523e-04  1.2181905038782481e-04  1.2181905038752733e-04  1.2181905038729414e-04  1.2181905038710948e-04  1.2181905038696016e-04  1.2181905038683569e-04  1.2181905038672849e-04  1.2181905038663354e-04  1.2181905038654791e-04  1.2181905038647031e-04  1.2181905038640136e-04  1.2181905038633999e-04  1.2181905038628673e-04  1.2181905038624352e-04  1.2181905038621021e-04  1.2181905038618720e-04  1.2181905038617525e-04  2.4365189323893383e-04  2.4365189638444871e-04  1.2181905237617540e-04  1.2181905412063777e-04  1.2181905813206690e-04  1.2181906679028211e-04  1.2181908516353059e-04  1.2181912392277366e-04  1.2181920559641891e-04  1.2181937835177890e-04  1.2181974758864665e-04  1.2182055160541740e-04  1.2182234741095637e-04  1.2182646131443257e-04  1.2183602850087332e-04  1.2185849269571986e-04  1.8295527377949080e-04  2.4451949254403947e-04  2.4519164840945202e-04  2.4597153894435111e-04  1.8441209345077301e-04  1.2263228113401344e-04  1.2259642949669238e-04  1.2248157456855454e-04  1.2235679630300217e-04  1.2225011590602012e-04  1.2215989112805047e-04  1.2208308340503048e-04  1.2201876737072187e-04  1.2196658610845820e-04  1.2192572951231855e-04  1.2189479608126774e-04  1.2187204945634495e-04  1.2185572073822177e-04  1.2184421874603799e-04  1.2183622988799222e-04  1.2183073517215248e-04  1.2182697965846701e-04  1.2182442247255372e-04  1.2182268503560544e-04  1.2182150626725683e-04  1.2182070757275497e-04  1.2182016719408201e-04  1.2181980218296183e-04  1.2181955602993624e-04  1.2181939026017835e-04  1.2181927872529052e-04  1.2181920370668700e-04  1.2181915324061812e-04  1.2181911927655655e-04  1.2181909641089718e-04  1.2181908102059600e-04  1.2181907067485402e-04  1.2181906373895626e-04  1.2181905910960353e-04  1.2181905603915100e-04  1.2181905401921250e-04  1.2181905270346305e-04  1.2181905185611991e-04  1.2181905131722595e-04  1.2181905097897845e-04  1.2181905076941293e-04  1.2181905064107665e-04  1.2181905056313320e-04  1.2181905051587006e-04  1.2181905048690649e-04  1.2181905046860985e-04  1.2181905045636812e-04  1.2181905044746037e-04  1.2181905044033361e-04  1.2181905043414463e-04  1.2181905042847786e-04  1.2181905042316652e-04  1.2181905041817583e-04  1.2181905041353436e-04  1.2181905040928922e-04  1.2181905040548120e-04  1.2181905040213340e-04  1.2181905039924766e-04  1.2181905039680682e-04  1.2181905039477899e-04  1.2181905039312268e-04  1.2181905039179169e-04  1.2181905039073597e-04  1.2181905038990745e-04  1.2181905038926224e-04  1.2181905038875836e-04  1.2181905038835972e-04  1.2181905038803652e-04  1.2181905038776539e-04  1.2181905038752961e-04  1.2181905038731848e-04  1.2181905038712639e-04  1.2181905038695129e-04  1.2181905038679419e-04  1.2181905038665501e-04  1.2181905038653539e-04  1.2181905038643792e-04  1.2181905038636284e-04  1.2181905038631107e-04  1.2181905038628399e-04  2.4365189323911874e-04  2.4365189775762237e-04  1.2181905326593131e-04  1.2181905585005842e-04  1.2181906182422554e-04  1.2181907476938711e-04  1.2181910224941047e-04  1.2181915990355568e-04  1.2181927971773254e-04  1.2181952686932400e-04  1.2182003517355227e-04  1.2182108546000605e-04  1.2182327989657184e-04  1.2182792341833138e-04  1.8277696537448662e-04  2.4381064497859133e-04  3.6621218241541023e-04  7.6421368812153900e-01  9.5522822354575876e-01  9.6934413010236142e-01  9.8626072390783093e-01  3.7880731531752409e-04  1.8633027880445070e-04  1.2326923801208521e-04  1.2300879676035000e-04  1.2277198749292709e-04  1.2257037078671910e-04  1.2239722178952772e-04  1.2225226624485534e-04  1.2213565658484934e-04  1.2204552349037650e-04  1.2197825429787553e-04  1.2192948133988343e-04  1.2189491735161448e-04  1.2187083800842814e-04  1.2185426174846474e-04  1.2184293659264623e-04  1.2183523175493706e-04  1.2183000070281459e-04  1.2182645266455412e-04  1.2182404799896578e-04  1.2182241997251607e-04  1.2182131939015379e-04  1.2182057667801808e-04  1.2182007632437233e-04  1.2181973968791883e-04  1.2181951335655600e-04  1.2181936118792571e-04  1.2181925882681971e-04  1.2181918992034015e-04  1.2181914351365274e-04  1.2181911227116462e-04  1.2181909127283725e-04  1.2181907720743858e-04  1.2181906783629085e-04  1.2181906163879762e-04  1.2181905757846549e-04  1.2181905494787338e-04  1.2181905326501548e-04  1.2181905220312006e-04  1.2181905154249090e-04  1.2181905113709538e-04  1.2181905089123400e-04  1.2181905074321823e-04  1.2181905065399939e-04  1.2181905059932888e-04  1.2181905056444343e-04  1.2181905054054371e-04  1.2181905052252009e-04  1.2181905050751807e-04  1.2181905049404464e-04  1.2181905048141810e-04  1.2181905046942143e-04  1.2181905045807680e-04  1.2181905044750808e-04  1.2181905043785345e-04  1.2181905042921899e-04  1.2181905042165815e-04  1.2181905041517058e-04  1.2181905040970970e-04  1.2181905040519579e-04  1.2181905040152798e-04  1.2181905039859568e-04  1.2181905039628335e-04  1.2181905039447983e-04  1.2181905039308191e-04  1.2181905039199413e-04  1.2181905039113436e-04  1.2181905039043470e-04  1.2181905038984305e-04  1.2181905038932298e-04  1.2181905038885209e-04  1.2181905038841957e-04  1.2181905038802300e-04  1.2181905038766535e-04  1.2181905038734936e-04  1.2181905038707917e-04  1.2181905038685903e-04  1.2181905038669005e-04  1.2181905038657372e-04  1.2181905038651243e-04  2.4365189323950656e-04  2.4365189964697275e-04  1.2181905451229082e-04  1.2181905833000788e-04  1.2181906725125034e-04  1.2181908679901045e-04  1.2181912869729079e-04  1.2181921711395125e-04  1.2181940059914569e-04  1.2181977381957930e-04  1.2182051461075188e-04  1.2182193479706117e-04  1.2182448450003173e-04  1.8275691751209601e-04  3.6564226627424902e-04  5.4343068370111680e-01  5.5395595780370199e-01  5.0000009463840522e-01  5.0000009489720831e-01  5.0000009498645714e-01  5.0000009483700614e-01  9.8940974263764492e-01  9.9415695781223257e-01  1.8932685323138309e-04  1.2440950585485241e-04  1.2393276135028907e-04  1.2348274190194361e-04  1.2308786108298190e-04  1.2275836114233925e-04  1.2249687797209763e-04  1.2229815165310204e-04  1.2215232941132075e-04  1.2204823579187857e-04  1.2197545493283473e-04  1.2192530536730576e-04  1.2189106882432358e-04  1.2186781246558283e-04  1.2185204671244260e-04  1.2184136333665517e-04  1.2183412384924287e-04  1.2182921987681017e-04  1.2182590156309536e-04  1.2182366005543976e-04  1.2182214893686984e-04  1.2182113203927476e-04  1.2182044854293963e-04  1.2181998931238322e-04  1.2181968063401294e-04  1.2181947295524485e-04  1.2181933308737976e-04  1.2181923884137401e-04  1.2181917537454386e-04  1.2181913273029267e-04  1.2181910419847220e-04  1.2181908523164515e-04  1.2181907273212607e-04  1.2181906458272475e-04  1.2181905933579730e-04  1.2181905600460087e-04  1.2181905392110717e-04  1.2181905263767697e-04  1.2181905185835114e-04  1.2181905139061001e-04  1.2181905111152160e-04  1.2181905094414718e-04  1.2181905084131717e-04  1.2181905077470728e-04  1.2181905072768326e-04  1.2181905069075130e-04  1.2181905065874023e-04  1.2181905062907359e-04  1.2181905060070937e-04  1.2181905057346879e-04  1.2181905054759758e-04  1.2181905052348967e-04  1.2181905050151587e-04  1.2181905048193580e-04  1.2181905046486718e-04  1.2181905045029271e-04  1.2181905043808706e-04  1.2181905042805020e-04  1.2181905041993809e-04  1.2181905041348776e-04  1.2181905040843161e-04  1.2181905040451206e-04  1.2181905040148982e-04  1.2181905039914699e-04  1.2181905039729566e-04  1.2181905039578225e-04  1.2181905039449037e-04  1.2181905039334060e-04  1.2181905039228703e-04  1.2181905039131038e-04  1.2181905039040982e-04  1.2181905038959512e-04  1.2181905038887700e-04  1.2181905038826567e-04  1.2181905038776897e-04  1.2181905038738928e-04  1.2181905038712837e-04  1.2181905038699019e-04  2.4365189324031505e-04  2.4365190211657144e-04  1.2181905617504542e-04  1.2181906172510084e-04  1.2181907489826582e-04  1.2181910429578710e-04  1.2181916858187498e-04  1.2181930709179482e-04  1.2181960033484423e-04  1.2182020646896478e-04  1.2182141517330617e-04  1.2182364866244325e-04  1.2182689969328180e-04  2.4369715773865853e-04  5.2510671551608490e-01  5.3312346525639009e-01  5.0000009482855146e-01  5.0000009536839174e-01  5.0000009594978767e-01  5.0000009650418031e-01  5.0000009615378149e-01  5.0000009618466434e-01  9.95879853683