<?xml version="1.0"?>
<VTKFile type="UnstructuredGrid"  version="0.1"  >
<UnstructuredGrid>
<Piece  NumberOfPoints="5151" NumberOfCells="10000">
<Points>
<DataArray  type="Float64"  NumberOfComponents="3"  format="ascii">0 0 0  0.02 0 0  0.04 0 0  0.06 0 0  0.08 0 0  0.1 0 0  0.12 0 0  0.14 0 0  0.16 0 0  0.18 0 0  0.2 0 0  0.22 0 0  0.24 0 0  0.26 0 0  0.28 0 0  0.3 0 0  0.32 0 0  0.34 0 0  0.36 0 0  0.38 0 0  0.4 0 0  0.42 0 0  0.44 0 0  0.46 0 0  0.48 0 0  0.5 0 0  0.52 0 0  0.54 0 0  0.5600000000000001 0 0  0.58 0 0  0.6 0 0  0.62 0 0  0.64 0 0  0.66 0 0  0.68 0 0  0.7 0 0  0.72 0 0  0.74 0 0  0.76 0 0  0.78 0 0  0.8 0 0  0.82 0 0  0.84 0 0  0.86 0 0  0.88 0 0  0.9 0 0  0.92 0 0  0.9399999999999999 0 0  0.96 0 0  0.98 0 0  1 0 0  1.02 0 0  1.04 0 0  1.06 0 0  1.08 0 0  1.1 0 0  1.12 0 0  1.14 0 0  1.16 0 0  1.18 0 0  1.2 0 0  1.22 0 0  1.24 0 0  1.26 0 0  1.28 0 0  1.3 0 0  1.32 0 0  1.34 0 0  1.36 0 0  1.38 0 0  1.4 0 0  1.42 0 0  1.44 0 0  1.46 0 0  1.48 0 0  1.5 0 0  1.52 0 0  1.54 0 0  1.56 0 0  1.58 0 0  1.6 0 0  1.62 0 0  1.64 0 0  1.66 0 0  1.68 0 0  1.7 0 0  1.72 0 0  1.74 0 0  1.76 0 0  1.78 0 0  1.8 0 0  1.82 0 0  1.84 0 0  1.86 0 0  1.88 0 0  1.9 0 0  1.92 0 0  1.94 0 0  1.96 0 0  1.98 0 0  2 0 0  0 0.02 0  0.02 0.02 0  0.04 0.02 0  0.06 0.02 0  0.08 0.02 0  0.1 0.02 0  0.12 0.02 0  0.14 0.02 0  0.16 0.02 0  0.18 0.02 0  0.2 0.02 0  0.22 0.02 0  0.24 0.02 0  0.26 0.02 0  0.28 0.02 0  0.3 0.02 0  0.32 0.02 0  0.34 0.02 0  0.36 0.02 0  0.38 0.02 0  0.4 0.02 0  0.42 0.02 0  0.44 0.02 0  0.46 0.02 0  0.48 0.02 0  0.5 0.02 0  0.52 0.02 0  0.54 0.02 0  0.5600000000000001 0.02 0  0.58 0.02 0  0.6 0.02 0  0.62 0.02 0  0.64 0.02 0  0.66 0.02 0  0.68 0.02 0  0.7 0.02 0  0.72 0.02 0  0.74 0.02 0  0.76 0.02 0  0.78 0.02 0  0.8 0.02 0  0.82 0.02 0  0.84 0.02 0  0.86 0.02 0  0.88 0.02 0  0.9 0.02 0  0.92 0.02 0  0.9399999999999999 0.02 0  0.96 0.02 0  0.98 0.02 0  1 0.02 0  1.02 0.02 0  1.04 0.02 0  1.06 0.02 0  1.08 0.02 0  1.1 0.02 0  1.12 0.02 0  1.14 0.02 0  1.16 0.02 0  1.18 0.02 0  1.2 0.02 0  1.22 0.02 0  1.24 0.02 0  1.26 0.02 0  1.28 0.02 0  1.3 0.02 0  1.32 0.02 0  1.34 0.02 0  1.36 0.02 0  1.38 0.02 0  1.4 0.02 0  1.42 0.02 0  1.44 0.02 0  1.46 0.02 0  1.48 0.02 0  1.5 0.02 0  1.52 0.02 0  1.54 0.02 0  1.56 0.02 0  1.58 0.02 0  1.6 0.02 0  1.62 0.02 0  1.64 0.02 0  1.66 0.02 0  1.68 0.02 0  1.7 0.02 0  1.72 0.02 0  1.74 0.02 0  1.76 0.02 0  1.78 0.02 0  1.8 0.02 0  1.82 0.02 0  1.84 0.02 0  1.86 0.02 0  1.88 0.02 0  1.9 0.02 0  1.92 0.02 0  1.94 0.02 0  1.96 0.02 0  1.98 0.02 0  2 0.02 0  0 0.04 0  0.02 0.04 0  0.04 0.04 0  0.06 0.04 0  0.08 0.04 0  0.1 0.04 0  0.12 0.04 0  0.14 0.04 0  0.16 0.04 0  0.18 0.04 0  0.2 0.04 0  0.22 0.04 0  0.24 0.04 0  0.26 0.04 0  0.28 0.04 0  0.3 0.04 0  0.32 0.04 0  0.34 0.04 0  0.36 0.04 0  0.38 0.04 0  0.4 0.04 0  0.42 0.04 0  0.44 0.04 0  0.46 0.04 0  0.48 0.04 0  0.5 0.04 0  0.52 0.04 0  0.54 0.04 0  0.5600000000000001 0.04 0  0.58 0.04 0  0.6 0.04 0  0.62 0.04 0  0.64 0.04 0  0.66 0.04 0  0.68 0.04 0  0.7 0.04 0  0.72 0.04 0  0.74 0.04 0  0.76 0.04 0  0.78 0.04 0  0.8 0.04 0  0.82 0.04 0  0.84 0.04 0  0.86 0.04 0  0.88 0.04 0  0.9 0.04 0  0.92 0.04 0  0.9399999999999999 0.04 0  0.96 0.04 0  0.98 0.04 0  1 0.04 0  1.02 0.04 0  1.04 0.04 0  1.06 0.04 0  1.08 0.04 0  1.1 0.04 0  1.12 0.04 0  1.14 0.04 0  1.16 0.04 0  1.18 0.04 0  1.2 0.04 0  1.22 0.04 0  1.24 0.04 0  1.26 0.04 0  1.28 0.04 0  1.3 0.04 0  1.32 0.04 0  1.34 0.04 0  1.36 0.04 0  1.38 0.04 0  1.4 0.04 0  1.42 0.04 0  1.44 0.04 0  1.46 0.04 0  1.48 0.04 0  1.5 0.04 0  1.52 0.04 0  1.54 0.04 0  1.56 0.04 0  1.58 0.04 0  1.6 0.04 0  1.62 0.04 0  1.64 0.04 0  1.66 0.04 0  1.68 0.04 0  1.7 0.04 0  1.72 0.04 0  1.74 0.04 0  1.76 0.04 0  1.78 0.04 0  1.8 0.04 0  1.82 0.04 0  1.84 0.04 0  1.86 0.04 0  1.88 0.04 0  1.9 0.04 0  1.92 0.04 0  1.94 0.04 0  1.96 0.04 0  1.98 0.04 0  2 0.04 0  0 0.06 0  0.02 0.06 0  0.04 0.06 0  0.06 0.06 0  0.08 0.06 0  0.1 0.06 0  0.12 0.06 0  0.14 0.06 0  0.16 0.06 0  0.18 0.06 0  0.2 0.06 0  0.22 0.06 0  0.24 0.06 0  0.26 0.06 0  0.28 0.06 0  0.3 0.06 0  0.32 0.06 0  0.34 0.06 0  0.36 0.06 0  0.38 0.06 0  0.4 0.06 0  0.42 0.06 0  0.44 0.06 0  0.46 0.06 0  0.48 0.06 0  0.5 0.06 0  0.52 0.06 0  0.54 0.06 0  0.5600000000000001 0.06 0  0.58 0.06 0  0.6 0.06 0  0.62 0.06 0  0.64 0.06 0  0.66 0.06 0  0.68 0.06 0  0.7 0.06 0  0.72 0.06 0  0.74 0.06 0  0.76 0.06 0  0.78 0.06 0  0.8 0.06 0  0.82 0.06 0  0.84 0.06 0  0.86 0.06 0  0.88 0.06 0  0.9 0.06 0  0.92 0.06 0  0.9399999999999999 0.06 0  0.96 0.06 0  0.98 0.06 0  1 0.06 0  1.02 0.06 0  1.04 0.06 0  1.06 0.06 0  1.08 0.06 0  1.1 0.06 0  1.12 0.06 0  1.14 0.06 0  1.16 0.06 0  1.18 0.06 0  1.2 0.06 0  1.22 0.06 0  1.24 0.06 0  1.26 0.06 0  1.28 0.06 0  1.3 0.06 0  1.32 0.06 0  1.34 0.06 0  1.36 0.06 0  1.38 0.06 0  1.4 0.06 0  1.42 0.06 0  1.44 0.06 0  1.46 0.06 0  1.48 0.06 0  1.5 0.06 0  1.52 0.06 0  1.54 0.06 0  1.56 0.06 0  1.58 0.06 0  1.6 0.06 0  1.62 0.06 0  1.64 0.06 0  1.66 0.06 0  1.68 0.06 0  1.7 0.06 0  1.72 0.06 0  1.74 0.06 0  1.76 0.06 0  1.78 0.06 0  1.8 0.06 0  1.82 0.06 0  1.84 0.06 0  1.86 0.06 0  1.88 0.06 0  1.9 0.06 0  1.92 0.06 0  1.94 0.06 0  1.96 0.06 0  1.98 0.06 0  2 0.06 0  0 0.08 0  0.02 0.08 0  0.04 0.08 0  0.06 0.08 0  0.08 0.08 0  0.1 0.08 0  0.12 0.08 0  0.14 0.08 0  0.16 0.08 0  0.18 0.08 0  0.2 0.08 0  0.22 0.08 0  0.24 0.08 0  0.26 0.08 0  0.28 0.08 0  0.3 0.08 0  0.32 0.08 0  0.34 0.08 0  0.36 0.08 0  0.38 0.08 0  0.4 0.08 0  0.42 0.08 0  0.44 0.08 0  0.46 0.08 0  0.48 0.08 0  0.5 0.08 0  0.52 0.08 0  0.54 0.08 0  0.5600000000000001 0.08 0  0.58 0.08 0  0.6 0.08 0  0.62 0.08 0  0.64 0.08 0  0.66 0.08 0  0.68 0.08 0  0.7 0.08 0  0.72 0.08 0  0.74 0.08 0  0.76 0.08 0  0.78 0.08 0  0.8 0.08 0  0.82 0.08 0  0.84 0.08 0  0.86 0.08 0  0.88 0.08 0  0.9 0.08 0  0.92 0.08 0  0.9399999999999999 0.08 0  0.96 0.08 0  0.98 0.08 0  1 0.08 0  1.02 0.08 0  1.04 0.08 0  1.06 0.08 0  1.08 0.08 0  1.1 0.08 0  1.12 0.08 0  1.14 0.08 0  1.16 0.08 0  1.18 0.08 0  1.2 0.08 0  1.22 0.08 0  1.24 0.08 0  1.26 0.08 0  1.28 0.08 0  1.3 0.08 0  1.32 0.08 0  1.34 0.08 0  1.36 0.08 0  1.38 0.08 0  1.4 0.08 0  1.42 0.08 0  1.44 0.08 0  1.46 0.08 0  1.48 0.08 0  1.5 0.08 0  1.52 0.08 0  1.54 0.08 0  1.56 0.08 0  1.58 0.08 0  1.6 0.08 0  1.62 0.08 0  1.64 0.08 0  1.66 0.08 0  1.68 0.08 0  1.7 0.08 0  1.72 0.08 0  1.74 0.08 0  1.76 0.08 0  1.78 0.08 0  1.8 0.08 0  1.82 0.08 0  1.84 0.08 0  1.86 0.08 0  1.88 0.08 0  1.9 0.08 0  1.92 0.08 0  1.94 0.08 0  1.96 0.08 0  1.98 0.08 0  2 0.08 0  0 0.1 0  0.02 0.1 0  0.04 0.1 0  0.06 0.1 0  0.08 0.1 0  0.1 0.1 0  0.12 0.1 0  0.14 0.1 0  0.16 0.1 0  0.18 0.1 0  0.2 0.1 0  0.22 0.1 0  0.24 0.1 0  0.26 0.1 0  0.28 0.1 0  0.3 0.1 0  0.32 0.1 0  0.34 0.1 0  0.36 0.1 0  0.38 0.1 0  0.4 0.1 0  0.42 0.1 0  0.44 0.1 0  0.46 0.1 0  0.48 0.1 0  0.5 0.1 0  0.52 0.1 0  0.54 0.1 0  0.5600000000000001 0.1 0  0.58 0.1 0  0.6 0.1 0  0.62 0.1 0  0.64 0.1 0  0.66 0.1 0  0.68 0.1 0  0.7 0.1 0  0.72 0.1 0  0.74 0.1 0  0.76 0.1 0  0.78 0.1 0  0.8 0.1 0  0.82 0.1 0  0.84 0.1 0  0.86 0.1 0  0.88 0.1 0  0.9 0.1 0  0.92 0.1 0  0.9399999999999999 0.1 0  0.96 0.1 0  0.98 0.1 0  1 0.1 0  1.02 0.1 0  1.04 0.1 0  1.06 0.1 0  1.08 0.1 0  1.1 0.1 0  1.12 0.1 0  1.14 0.1 0  1.16 0.1 0  1.18 0.1 0  1.2 0.1 0  1.22 0.1 0  1.24 0.1 0  1.26 0.1 0  1.28 0.1 0  1.3 0.1 0  1.32 0.1 0  1.34 0.1 0  1.36 0.1 0  1.38 0.1 0  1.4 0.1 0  1.42 0.1 0  1.44 0.1 0  1.46 0.1 0  1.48 0.1 0  1.5 0.1 0  1.52 0.1 0  1.54 0.1 0  1.56 0.1 0  1.58 0.1 0  1.6 0.1 0  1.62 0.1 0  1.64 0.1 0  1.66 0.1 0  1.68 0.1 0  1.7 0.1 0  1.72 0.1 0  1.74 0.1 0  1.76 0.1 0  1.78 0.1 0  1.8 0.1 0  1.82 0.1 0  1.84 0.1 0  1.86 0.1 0  1.88 0.1 0  1.9 0.1 0  1.92 0.1 0  1.94 0.1 0  1.96 0.1 0  1.98 0.1 0  2 0.1 0  0 0.12 0  0.02 0.12 0  0.04 0.12 0  0.06 0.12 0  0.08 0.12 0  0.1 0.12 0  0.12 0.12 0  0.14 0.12 0  0.16 0.12 0  0.18 0.12 0  0.2 0.12 0  0.22 0.12 0  0.24 0.12 0  0.26 0.12 0  0.28 0.12 0  0.3 0.12 0  0.32 0.12 0  0.34 0.12 0  0.36 0.12 0  0.38 0.12 0  0.4 0.12 0  0.42 0.12 0  0.44 0.12 0  0.46 0.12 0  0.48 0.12 0  0.5 0.12 0  0.52 0.12 0  0.54 0.12 0  0.5600000000000001 0.12 0  0.58 0.12 0  0.6 0.12 0  0.62 0.12 0  0.64 0.12 0  0.66 0.12 0  0.68 0.12 0  0.7 0.12 0  0.72 0.12 0  0.74 0.12 0  0.76 0.12 0  0.78 0.12 0  0.8 0.12 0  0.82 0.12 0  0.84 0.12 0  0.86 0.12 0  0.88 0.12 0  0.9 0.12 0  0.92 0.12 0  0.9399999999999999 0.12 0  0.96 0.12 0  0.98 0.12 0  1 0.12 0  1.02 0.12 0  1.04 0.12 0  1.06 0.12 0  1.08 0.12 0  1.1 0.12 0  1.12 0.12 0  1.14 0.12 0  1.16 0.12 0  1.18 0.12 0  1.2 0.12 0  1.22 0.12 0  1.24 0.12 0  1.26 0.12 0  1.28 0.12 0  1.3 0.12 0  1.32 0.12 0  1.34 0.12 0  1.36 0.12 0  1.38 0.12 0  1.4 0.12 0  1.42 0.12 0  1.44 0.12 0  1.46 0.12 0  1.48 0.12 0  1.5 0.12 0  1.52 0.12 0  1.54 0.12 0  1.56 0.12 0  1.58 0.12 0  1.6 0.12 0  1.62 0.12 0  1.64 0.12 0  1.66 0.12 0  1.68 0.12 0  1.7 0.12 0  1.72 0.12 0  1.74 0.12 0  1.76 0.12 0  1.78 0.12 0  1.8 0.12 0  1.82 0.12 0  1.84 0.12 0  1.86 0.12 0  1.88 0.12 0  1.9 0.12 0  1.92 0.12 0  1.94 0.12 0  1.96 0.12 0  1.98 0.12 0  2 0.12 0  0 0.14 0  0.02 0.14 0  0.04 0.14 0  0.06 0.14 0  0.08 0.14 0  0.1 0.14 0  0.12 0.14 0  0.14 0.14 0  0.16 0.14 0  0.18 0.14 0  0.2 0.14 0  0.22 0.14 0  0.24 0.14 0  0.26 0.14 0  0.28 0.14 0  0.3 0.14 0  0.32 0.14 0  0.34 0.14 0  0.36 0.14 0  0.38 0.14 0  0.4 0.14 0  0.42 0.14 0  0.44 0.14 0  0.46 0.14 0  0.48 0.14 0  0.5 0.14 0  0.52 0.14 0  0.54 0.14 0  0.5600000000000001 0.14 0  0.58 0.14 0  0.6 0.14 0  0.62 0.14 0  0.64 0.14 0  0.66 0.14 0  0.68 0.14 0  0.7 0.14 0  0.72 0.14 0  0.74 0.14 0  0.76 0.14 0  0.78 0.14 0  0.8 0.14 0  0.82 0.14 0  0.84 0.14 0  0.86 0.14 0  0.88 0.14 0  0.9 0.14 0  0.92 0.14 0  0.9399999999999999 0.14 0  0.96 0.14 0  0.98 0.14 0  1 0.14 0  1.02 0.14 0  1.04 0.14 0  1.06 0.14 0  1.08 0.14 0  1.1 0.14 0  1.12 0.14 0  1.14 0.14 0  1.16 0.14 0  1.18 0.14 0  1.2 0.14 0  1.22 0.14 0  1.24 0.14 0  1.26 0.14 0  1.28 0.14 0  1.3 0.14 0  1.32 0.14 0  1.34 0.14 0  1.36 0.14 0  1.38 0.14 0  1.4 0.14 0  1.42 0.14 0  1.44 0.14 0  1.46 0.14 0  1.48 0.14 0  1
[...]
<CellData  Scalars="f_1268"> 
<DataArray  type="Float64"  Name="f_1268"  format="ascii">1.4536334299670585e+01   1.4537038263942152e+01   1.7165480849596385e+01   4.1823690508324027e+00   8.3643597294486458e+00   2.3631847695963881e+01   2.0369963529569038e+01   5.2976787197929461e+01   5.7748234512325112e+01   8.8980525293500023e+01   1.0851754520398903e+02   1.3258916404778128e+02   1.7074417221971572e+02   1.8412588807021001e+02   2.4261396458386204e+02   2.4313033592587229e+02   3.2227299377380587e+02   3.0859816804957984e+02   4.0785476056625379e+02   3.7920464460050573e+02   4.9748362184256041e+02   4.5343898361546803e+02   5.8925750962266454e+02   5.2966852879171699e+02   6.8121935175576209e+02   6.0616043787037745e+02   7.7132313073526052e+02   6.8108016095088340e+02   8.5739796469084195e+02   7.5247822575961618e+02   9.3711222654014011e+02   8.1827214714655884e+02   1.0079390890913960e+03   8.7622788870958414e+02   1.0671246999936550e+03   9.2394443639223414e+02   1.1116603282390888e+03   9.5884537035901189e+02   1.1382603185675189e+03   9.7818308759960291e+02   1.1433488056488197e+03   9.7906572849514157e+02   1.1230606674913824e+03   9.5852736637236171e+02   1.0732684870612104e+03   9.1368875815471858e+02   9.8966515068090791e+02   8.4213134308891392e+02   8.6799185250094581e+02   7.4284866401318948e+02   7.0475619962553651e+02   6.1903277074631694e+02   5.0030116434899048e+02   4.8759964240392054e+02   2.8144839762159995e+02   4.0969505778671777e+02   2.8037520845045731e+02   4.9803762267604009e+02   6.1690608084799453e+02   7.6109841637103852e+02   1.0771731347549617e+03   1.1368918145295875e+03   1.6250541067466474e+03   1.5972131484527708e+03   2.2570465651892259e+03   2.1331358081405833e+03   2.9728117503580484e+03   2.7409645196404754e+03   3.7707970464700707e+03   3.4173988725542140e+03   4.6465644354803344e+03   4.1574883126416253e+03   5.5915474361068846e+03   4.9533757526434201e+03   6.5918818370961835e+03   5.7933118325082423e+03   7.6272673452229128e+03   6.6608396218845774e+03   8.6698991930200209e+03   7.5341650867337112e+03   9.6835754099319201e+03   8.3857614455069906e+03   1.0623470896955967e+04   9.1822053485594988e+03   1.1437818716432344e+04   9.8847004194270157e+03   1.2068720844511008e+04   1.0449461620884069e+04   1.2462578313752438e+04   1.0834536526559292e+04   1.2610806599104792e+04   1.1024536625761051e+04   1.2599324817745439e+04   1.1066211977945000e+04   1.2513770591836641e+04   1.1027045674564166e+04   1.2456244190612168e+04   1.0979135699861141e+04   1.2506523580767918e+04   1.0993062365712061e+04   1.2738614437449465e+04   1.1132813552004331e+04   1.3091969065950218e+04   1.1381302820603760e+04   1.3444686603442740e+04   1.1647982485841087e+04   1.3677154315150508e+04   1.1842210649484943e+04   1.3674148563721415e+04   1.1877879318810237e+04   1.3321128133142793e+04   1.1668274248939284e+04   1.2565897112715531e+04   1.1156794322445739e+04   1.1440529728091438e+04   1.0342579748405755e+04   1.0033854033272233e+04   9.2729694453082084e+03   8.4543593167066101e+03   8.0219853689077772e+03   6.8049070803331197e+03   6.6701976294655879e+03   5.1726803066761868e+03   5.2924827704870986e+03   3.6328954031677208e+03   3.9554107150267246e+03   2.2760125140386031e+03   2.7271206074633205e+03   1.3410813919220359e+03   1.7220749122481172e+03   1.4030744923222544e+03   1.2487797484075243e+03   2.1463995827816934e+03   1.5673358855669071e+03   2.9554860478200012e+03   2.2156214666656351e+03   3.6783268448915210e+03   2.8717577682132305e+03   4.2831821194406803e+03   3.4513392151750722e+03   4.7652521763252862e+03   3.9328496940084879e+03   5.1284125631345332e+03   4.3126581966206568e+03   5.3801824749439593e+03   4.5938230792282038e+03   5.5298377530989310e+03   4.7824578447855047e+03   5.5874979665173496e+03   4.8862162375131829e+03   5.5635884096912278e+03   4.9135125337658856e+03   5.4684805708773756e+03   4.8730507186807445e+03   5.3122384220858348e+03   4.7735106736714743e+03   5.1044403436526809e+03   4.6233304469272907e+03   4.8540616363132194e+03   4.4305568195109136e+03   4.5694078356954942e+03   4.2027490806281476e+03   4.2580907876936926e+03   3.9469259149405475e+03   3.9270401284405248e+03   3.6695473648021184e+03   3.5825433615364641e+03   3.3765248441334061e+03   3.2303084153774967e+03   3.0732528676547563e+03   2.8755434043575574e+03   2.7646567428374060e+03   2.5230492175675017e+03   2.4552509589568635e+03   2.1773213913525938e+03   2.1492033087243044e+03   1.8426583446941067e+03   1.8503997570828431e+03   1.5232732970348713e+03   1.5625045715711526e+03   1.2234068263485497e+03   1.2890091129416974e+03   9.4743582025069259e+02   1.0332609831039219e+03   6.9997253032053936e+02   7.9846360800200659e+02   4.8594577176558744e+02   5.8763757737459184e+02   3.1065722692630436e+02   4.0354892763437886e+02   1.7975689741592819e+02   2.4867322675234703e+02   9.8057330478625289e+01   1.2559438202549332e+02   5.9626033699736084e+01   4.2055209861181439e+01   3.7121971250167704e+01   4.1348592950973043e+01   2.8012767694591947e+01   5.3977168711840982e+01   4.2529787799343719e+00   1.7143158698022471e+01   1.4600263101663453e+01   1.4358666401061987e+01   4.3845072745761080e+01   5.2804259638901705e+01   8.3507617212507881e+01   9.7029443443754403e+01   1.3023323732642697e+02   1.4434700859755091e+02   1.8282104488829654e+02   1.9371908320634049e+02   2.4066299019767902e+02   2.4498267865532642e+02   3.0317855602699251e+02   2.9820531513725712e+02   3.6961602658317975e+02   3.5334208285716323e+02   4.3900821121006300e+02   4.1009446719541438e+02   5.1018384775661076e+02   4.6788066218235230e+02   5.8179083817784203e+02   5.2585699061979722e+02   6.5231523459839468e+02   5.8295595974969513e+02   7.2009269246494955e+02   6.3792498671152714e+02   7.8331440238511414e+02   6.8936133118067062e+02   8.4003165412997635e+02   7.3574535287826552e+02   8.8816454093415769e+02   7.7547829835956554e+02   9.2552233062982918e+02   8.0693462300411841e+02   9.4984716818915319e+02   8.2854455763525698e+02   9.5890156571765783e+02   8.3893316720194446e+02   9.5063920412794812e+02   8.3716250712403917e+02   9.2354143171539079e+02   8.2316236014397100e+02   8.7730180676664941e+02   7.9850383871399845e+02   8.1427602432375227e+02   7.6776053202912397e+02   7.4260807184735904e+02   7.4066318911045062e+02   6.8236655646086945e+02   7.3442522024511436e+02   6.7234051360880358e+02   7.7297817208969354e+02   7.5948788733240156e+02   8.7874766039877920e+02   9.6404128306125153e+02   1.0623742672310907e+03   1.2750149062449689e+03   1.3227498873694262e+03   1.6763731165275742e+03   1.6543113683320476e+03   2.1577760241856281e+03   2.0516762219537463e+03   2.7130231400254411e+03   2.5104234741791702e+03   3.3371712548898577e+03   3.0263951002907679e+03   4.0245174195059567e+03   3.5947844333279272e+03   4.7672102607585402e+03   4.2093179781593426e+03   5.5542057165453289e+03   4.8615482987576561e+03   6.3704860777609229e+03   5.5402722762232161e+03   7.1965463896329802e+03   6.2311674851851049e+03   8.0081682091895636e+03   6.9166907206804544e+03   8.7765013113757504e+03   7.5761463998771769e+03   9.4682646123200266e+03   8.1856846931984828e+03   1.0046737632195835e+04   8.7170395715562299e+03   1.0469031785369521e+04   9.1273707905498086e+03   1.0695374948530030e+04   9.3629501307126993e+03   1.0733469559231540e+04   9.3997589008477462e+03   1.0689591984262966e+04   9.3046413065427787e+03   1.0601578124472391e+04   9.1555804607562568e+03   1.0556026627138983e+04   9.0052116030223679e+03   1.0611579986140305e+04   8.9416559145630963e+03   1.0856114763618767e+04   9.0817379158550993e+03   1.1172844293444814e+04   9.4108983297775758e+03   1.1447834536650911e+04   9.7684701077261325e+03   1.1607581785675115e+04   1.0069115990530208e+04   1.1584925588411646e+04   1.0257685973473934e+04   1.1305804281231505e+04   1.0266424537469760e+04   1.0764342327311309e+04   1.0044375140846560e+04   1.0001550137097665e+04   9.5900391962377034e+03   9.0709811071980148e+03   8.9339833509278287e+03   8.0297340343824699e+03   8.1228886085561908e+03   6.9380651647766726e+03   7.2119498656268843e+03   5.8588468743180483e+03   6.2595086393433594e+03   4.8580379524870359e+03   5.3240703866492649e+03   4.0076798975829411e+03   4.4643176859645782e+03   3.3865846461957590e+03   3.7411062661761498e+03   3.0608598654427037e+03   3.2160518899092208e+03   3.0340322494614084e+03   2.9348266973451259e+03   3.2258063209495986e+03   2.8940509452762572e+03   3.5268031444463927e+03   3.0313982075688336e+03   3.8529967962365263e+03   3.2629305413596057e+03   4.1546431516962302e+03   3.5209468247787622e+03   4.4059673441063578e+03   3.7629044909758795e+03   4.5953279628486071e+03   3.9654767887308153e+03   4.7191469214709268e+03   4.1174257808074562e+03   4.7784811240071240e+03   4.2147285425954706e+03   4.7770697876631339e+03   4.2576414678483079e+03   4.7201766139000265e+03   4.2489563731406515e+03   4.6138715865928698e+03   4.1929380635651460e+03   4.4645692008954611e+03   4.0946541366231950e+03   4.2787260882103456e+03   3.9595395620244572e+03   4.0626440662338186e+03   3.7931091859245003e+03   3.8223465178169804e+03   3.6007682250139824e+03   3.5635073923321738e+03   3.3876902265616031e+03   3.2914182230156821e+03   3.1587423939758323e+03   3.0109818768008804e+03   2.9184439525069370e+03   2.7267234867516154e+03   2.6709465551719072e+03   2.4428096812757599e+03   2.4200277416567578e+03   2.1630670171757965e+03   2.1690898132002767e+03   1.8909895627002520e+03   1.9211576822423262e+03   1.6297242024124700e+03   1.6788709268197113e+03   1.3820215839872922e+03   1.4444684485988128e+03   1.1501437464667961e+03   1.2197705138275439e+03   9.3573311411187422e+02   1.0061751911968312e+03   7.3968370077808697e+02   8.0470772294877270e+02   5.6212814786681781e+02   6.1619528121941664e+02   4.0276081370739070e+02   4.4168596824860202e+02   2.6178244952795131e+02   2.8328482115035899e+02   1.4148635619503128e+02   1.4567141666780188e+02   4.7317345715193738e+01   4.0430147523179492e+01   3.7075860684517458e+01   4.0938759715730640e+01   2.3646377405633096e+01   8.4885532712089624e+00   5.2947725241964179e+01   4.3300764892160245e+01   9.3156717189942640e+01   9.2688148789969901e+01   1.4258398849962001e+02   1.4573721804642670e+02   1.9714667324320806e+02   2.0068840026309627e+02   2.5425794637641536e+02   2.5560122094246654e+02   3.1253479588157745e+02   3.0934441695548537e+02   3.7121010636191915e+02   3.6140697907130590e+02   4.2974804606895742e+02   4.1158913210834601e+02   4.8762628720103999e+02   4.5977606969631256e+02   5.4422433099284217e+02   5.0580209438463794e+02   5.9877586514571976e+02   5.4938302656074029e+02   6.5035924660321973e+02   5.9009652484501908e+02   6.9791187911226120e+02   6.2739663962840882e+02   7.4026291330424363e+02   6.6065578250918099e+02   7.7618582646538573e+02   6.8923395689931976e+02   8.0447960363122081e+02   7.1258207456527748e+02   8.2409640717668162e+02   7.3039417484909234e+02   8.3434749353742700e+02   7.4283262077613642e+02   8.3524107516229606e+02   7.5085877003927919e+02   8.2803712139694449e+02   7.5669936972939399e+02   8.1613014710976483e+02   7.6443707675418500e+02   8.0631388903338473e+02   7.8057498339708116e+02   8.1010638513235472e+02   8.1415518080908021e+02   8.4383505722193684e+02   8.7581637554772544e+02   9.2546216430748973e+02   9.7565586799112168e+02   1.0686968157363319e+03   1.1210048978853256e+03   1.2794943892276367e+03   1.3156342755289900e+03   1.5577562480608635e+03   1.5605088731323824e+03   1.9008158597521049e+03   1.8549685213956998e+03   2.3054414956696123e+03   2.1974854816096054e+03   2.7682128164883193e+03   2.5858842986949558e+03   3.2851333875626246e+03   3.0172236288231916e+03   3.8510247876996705e+03   3.4875280046135222e+03   4.4589076318895995e+03   3.9914791590345390e+03   5.0994328140568623e+03   4.5221229758711561e+03   5.7604103386319421e+03   5.0706215602996235e+03   6.4265789815034268e+03   5.6260872648834766e+03   7.0798482009496438e+03   6.1756389637453149e+03   7.6999100164671399e+03   6.7049188748443385e+03   8.2649461870168798e+03   7.1987362941223801e+03   8.7519750056209177e+03   7.6411284914758626e+03   9.1338319531307097e+03   8.0141226354399678e+03   9.3568679678938934e+03   8.2661284987087365e+03   9.3537972126367640e+03   8.3019464065457614e+03   9.1372521530370996e+03   8.0776086356345186e+03   8.9113361247229459e+03   7.7115985717241965e+03   8.6688842807722813e+03   7.3300044670499483e+03   8.5203661659926638e+03   6.9678202173460777e+03   8.5281757019169818e+03   6.7471039124177114e+03   8.8871260067822386e+03   6.9179376118082546e+03   9.3443561160315512e+03   7.4640075364465338e+03   9.7409069585830657e+03   8.0669949677307122e+03   1.0037095150027872e+04   8.6386300056203418e+03   1.0196015996850805e+04   9.1423083405883826e+03   1.0133337110674131e+04   9.5071053446031892e+03   9.8737611388003170e+03   9.6626309679906863e+03   9.4764918326640691e+03   9.5924929226087970e+03   8.9745386655958064e+03   9.3161290051509568e+03   8.3846761436577963e+03   8.8671297216186194e+03   7.7273111421750800e+03   8.2857440461343249e+03   7.0327248492927638e+03   7.6154942019827922e+03   6.3382010967350716e+03   6.9007476438787899e+03   5.6830460996353258e+03   6.1843090884771809e+03   5.1041611147892763e+03   5.5056286891379059e+03   4.6318651854642549e+03   4.8995607309594425e+03   4.2851097814596042e+03   4.3947777382476488e+03   4.0668520146289311e+03   4.0108205742585742e+03   3.9626716202729804e+03   3.7539508327035942e+03   3.9451263731937488e+03   3.6143789911057247e+03   3.9819685071220979e+03   3.5683349808855501e+03   4.0435327835137132e+03   3.5850578159621418e+03   4.1065533337701372e+03   3.6345785479400247e+03   4.1548111873502903e+03   3.6925313646430836e+03   4.1781680146547296e+03   3.7415048508815817e+03   4.1711617175753099e+03   3.7703524659512368e+03   4.1317082894453115e+03   3.7728209386384256e+03   4.0600670353673045e+03   3.7462001287630596e+03   3.9580649934119510e+03   3.6902258139603155e+03   3.8285305798534814e+03   3.6062544193291860e+03   3.6748844059638827e+03   3.4966623853738311e+03   3.5008449928263071e+03   3.3644148846241847e+03   3.3102175035242144e+03   3.2127577501473656e+03   3.1067417235665257e+03   3.0449977883441647e+03   2.8939812685696625e+03   2.8643460119782085e+03   2.6752400484537425e+03   2.6738053755007822e+03   2.4534951575570958e+03   2.4760899737373384e+03   2.2313384113112193e+03   2.2735671889920732e+03   2.0109226487175706e+03   2.0682187147105951e+03   1.7939148055422665e+03   1.8616214723509111e+03   1.5814669417333880e+03   1.6549558531165965e+03   1.3742300062325728e+03   1.4490570263559930e+03   1.1724531770297742e+03   1.2445355163359479e+03   9.7623108423044232e+02   1.0420053189035496e+03   7.8597142029934912e+02   8.4246892227408875e+02   6.0312457455764002e+02   6.4791020110844511e+02   4.3104648182246910e+02   4.6211041488123516e+02   2.7526328908844340e+02   2.9153520956991821e+02   1.4128338822691501e+02   1.4561321762328450e+02   5.9598783693334674e+01   4.1840547788001516e+01   5.2648033618681225e+01   1.9870029380708264e+01   9.6728372991649223e+01   8.2214239746837862e+01   1.4568604241193574e+02   1.4142371796376835e+02   2.0102778178250767e+02   2.0055423145877253e+02   2.6012745083073889e+02   2.5988152619432145e+02   3.2019050124072936e+02   3.1796291100227052e+02   3.7925151409663545e+02   3.7335809651197587e+02   4.3606832897164293e+02   4.2507546796268826e+02   4.8984838031438517e+02   4.7252906439535923e+02   5.4002824605384524e+02   5.1539584359109313e+02   5.8613026112926275e+02   5.5349350007808061e+02   6.2768350938749563e+02   5.8670485825783089e+02   6.6419574366136089e+02   6.1494996563672601e+02   6.9516892487254290e+02   6.3820406921620281e+02   7.2015853908761494e+02   6.5656335512204464e+02   7.3888530769517160e+02   6.7036606565230613e+02   7.5141797309458582e+02   6.8038215500040133e+02   7.5845712011594185e+02   6.8808582947439174e+02   7.6175716735564777e+02   6.9601130838315896e+02   7.6470670765050829e+02   7.0814090330336956e+02   7.7299515369572714e+02   7.3016211290652245e+02   7.9505243102623751e+02   7.6929066679857544e+02   8.4161678491701025e+02   8.3338469857773191e+02   9.2388881210727470e+02   9.2951989587140281e+02   1.0509021080309042e+03   1.0627892962234548e+03   1.2279270676907113e+03   1.2360073521203303e+03   1.4568262993716794e+03   1.4502021690597219e+03   1.7373933669385999e+03   1.7052874950311232e+03   2.0684212203476577e+03   2.0004959596869617e+03   2.4481197543174303e+03   2.3345073342818819e+03   2.8740615794175374e+03   2.7053652602714856e+03   3.3428945897781791e+03   3.1102823626021695e+03   3.8499670881470070e+03   3.5454005541561537e+03   4.3889416912292099e+03   4.0055508234740141e+03   4.9514462616423389e+03   4.4840506702992570e+03   5.5267987240374168e+03   4.9725775037715921e+03   6.1018283268783325e+03   5.4611476262205015e+03   6.6608547201069605e+03   5.9382121116788703e+03   7.1862723650898624e+03   6.3909382706258912e+03   7.6603741776140487e+03   6.8060862646378046e+03   8.0667024054441345e+03   7.1719645103285648e+03   8.3901894008869276e+03   7.4790516838094927e+03   8.6158535614370721e+03   7.7180263242416286e+03   8.6594708733442803e+03   7.8195958793215577e+03   8.3555644427665393e+03   7.6427570471130466e+03   7.7294062677502179e+03   7.0750480763689520e+03   7.2145283682530771e+03   6.2877652085149366e+03   6.6972331149381598e+03   5.5682037982943957e+03   6.3839270230342372e+03   4.8495984098112749e+03   6.2940827145851026e+03   4.4198724725810034e+03   6.8967763307287078e+03   4.6611785924607948e+03   7.6373113861190368e+03   5.5387494568382645e+03   8.2975837338085912e+03   6.5035994758742263e+03   8.8936526731544764e+03   7.4875990701544461e+03   9.3944707487019496e+03   8.4526202082733216e+03   9.6313643501392216e+03   9.2888115158757646e+03   9.6731842041320469e+03   9.8710538955219090e+03   9.6043301639856072e+03   1.0148068151744148e+04   9.4378180511659993e+03   1.0149633751297524e+04   9.1614848155616346e+03   9.9275971648249397e+03   8.7737145098577548e+03   9.5307288992691392e+03   8.2900598445283631e+03   9.0018447459902036e+03   7.7377979107683705e+03   8.3809925728081162e+03   7.1490191586701494e+03   7.7061308096921448e+03   6.5556115581126323e+03   7.0123040252312530e+03   5.9863270606560682e+03   6.3308560717583396e+03   5.4651772801648003e+03   5.6890694000466701e+03   5.0103765727635091e+03   5.1099551763306172e+03   4.6333748205020320e+03   4.6117230229628267e+03   4.3380213468214515e+03   4.2065968459895521e+03   4.1203667741181307e+03   3.8991100237047344e+03   3.9696928019174784e+03   3.6847852088219129e+03   3.8708355785366266e+03   3.5505421162050256e+03   3.8071121282123750e+03   3.4774179716752651e+03   3.7628750136262779e+03   3.4445967604107268e+03   3.7250968949595763e+03   3.4329738852020901e+03   3.6839581312368314e+03   3.4271787144086393e+03   3.6327410382793073e+03   3.4160924250927419e+03   3.5673733337467406e+03   3.3924462692494581e+03   3.4858631766874651e+03   3.3520560616872635e+03   3.3877561600368504e+03   3.2930227415585659e+03   3.2736675347695495e+03   3.2150393446934918e+03   3.1449013035530197e+03   3.1188394663931381e+03   3.0031493760487838e+03   3.0057774914220545e+03   2.8502580125360587e+03   2.8775174208301155e+03   2.6880488161109729e+03   2.7358070276737531e+03   2.5181843306651203e+03   2.5823186709945026e+03   2.3420725015170869e+03   2.4185439031721885e+03   2.1608094177996127e+03   2.2457349001607845e+03   1.9751657850110364e+03   2.0648915402716257e+03   1.7856293292235991e+03   1.8767987250964929e+03   1.5925221805148942e+03   1.6821242177608385e+03   1.3962172337199831e+03   1.4815922311873410e+03   1.1974749217850933e+03   1.2762500179976148e+03   9.9789616645186720e+02   1.0678373667525177e+03   8.0039548320032600e+02   8.5923441344038622e+02   6.0932819268803564e+02   6.5485398273562441e+02   4.2923389861534838e+02   4.6055076171962861e+02   2.6023741497