<?xml version="1.0"?>
<VTKFile type="UnstructuredGrid"  version="0.1"  >
<UnstructuredGrid>
<Piece  NumberOfPoints="5151" NumberOfCells="10000">
<Points>
<DataArray  type="Float64"  NumberOfComponents="3"  format="ascii">0 0 0  0.02 0 0  0.04 0 0  0.06 0 0  0.08 0 0  0.1 0 0  0.12 0 0  0.14 0 0  0.16 0 0  0.18 0 0  0.2 0 0  0.22 0 0  0.24 0 0  0.26 0 0  0.28 0 0  0.3 0 0  0.32 0 0  0.34 0 0  0.36 0 0  0.38 0 0  0.4 0 0  0.42 0 0  0.44 0 0  0.46 0 0  0.48 0 0  0.5 0 0  0.52 0 0  0.54 0 0  0.5600000000000001 0 0  0.58 0 0  0.6 0 0  0.62 0 0  0.64 0 0  0.66 0 0  0.68 0 0  0.7 0 0  0.72 0 0  0.74 0 0  0.76 0 0  0.78 0 0  0.8 0 0  0.82 0 0  0.84 0 0  0.86 0 0  0.88 0 0  0.9 0 0  0.92 0 0  0.9399999999999999 0 0  0.96 0 0  0.98 0 0  1 0 0  1.02 0 0  1.04 0 0  1.06 0 0  1.08 0 0  1.1 0 0  1.12 0 0  1.14 0 0  1.16 0 0  1.18 0 0  1.2 0 0  1.22 0 0  1.24 0 0  1.26 0 0  1.28 0 0  1.3 0 0  1.32 0 0  1.34 0 0  1.36 0 0  1.38 0 0  1.4 0 0  1.42 0 0  1.44 0 0  1.46 0 0  1.48 0 0  1.5 0 0  1.52 0 0  1.54 0 0  1.56 0 0  1.58 0 0  1.6 0 0  1.62 0 0  1.64 0 0  1.66 0 0  1.68 0 0  1.7 0 0  1.72 0 0  1.74 0 0  1.76 0 0  1.78 0 0  1.8 0 0  1.82 0 0  1.84 0 0  1.86 0 0  1.88 0 0  1.9 0 0  1.92 0 0  1.94 0 0  1.96 0 0  1.98 0 0  2 0 0  0 0.02 0  0.02 0.02 0  0.04 0.02 0  0.06 0.02 0  0.08 0.02 0  0.1 0.02 0  0.12 0.02 0  0.14 0.02 0  0.16 0.02 0  0.18 0.02 0  0.2 0.02 0  0.22 0.02 0  0.24 0.02 0  0.26 0.02 0  0.28 0.02 0  0.3 0.02 0  0.32 0.02 0  0.34 0.02 0  0.36 0.02 0  0.38 0.02 0  0.4 0.02 0  0.42 0.02 0  0.44 0.02 0  0.46 0.02 0  0.48 0.02 0  0.5 0.02 0  0.52 0.02 0  0.54 0.02 0  0.5600000000000001 0.02 0  0.58 0.02 0  0.6 0.02 0  0.62 0.02 0  0.64 0.02 0  0.66 0.02 0  0.68 0.02 0  0.7 0.02 0  0.72 0.02 0  0.74 0.02 0  0.76 0.02 0  0.78 0.02 0  0.8 0.02 0  0.82 0.02 0  0.84 0.02 0  0.86 0.02 0  0.88 0.02 0  0.9 0.02 0  0.92 0.02 0  0.9399999999999999 0.02 0  0.96 0.02 0  0.98 0.02 0  1 0.02 0  1.02 0.02 0  1.04 0.02 0  1.06 0.02 0  1.08 0.02 0  1.1 0.02 0  1.12 0.02 0  1.14 0.02 0  1.16 0.02 0  1.18 0.02 0  1.2 0.02 0  1.22 0.02 0  1.24 0.02 0  1.26 0.02 0  1.28 0.02 0  1.3 0.02 0  1.32 0.02 0  1.34 0.02 0  1.36 0.02 0  1.38 0.02 0  1.4 0.02 0  1.42 0.02 0  1.44 0.02 0  1.46 0.02 0  1.48 0.02 0  1.5 0.02 0  1.52 0.02 0  1.54 0.02 0  1.56 0.02 0  1.58 0.02 0  1.6 0.02 0  1.62 0.02 0  1.64 0.02 0  1.66 0.02 0  1.68 0.02 0  1.7 0.02 0  1.72 0.02 0  1.74 0.02 0  1.76 0.02 0  1.78 0.02 0  1.8 0.02 0  1.82 0.02 0  1.84 0.02 0  1.86 0.02 0  1.88 0.02 0  1.9 0.02 0  1.92 0.02 0  1.94 0.02 0  1.96 0.02 0  1.98 0.02 0  2 0.02 0  0 0.04 0  0.02 0.04 0  0.04 0.04 0  0.06 0.04 0  0.08 0.04 0  0.1 0.04 0  0.12 0.04 0  0.14 0.04 0  0.16 0.04 0  0.18 0.04 0  0.2 0.04 0  0.22 0.04 0  0.24 0.04 0  0.26 0.04 0  0.28 0.04 0  0.3 0.04 0  0.32 0.04 0  0.34 0.04 0  0.36 0.04 0  0.38 0.04 0  0.4 0.04 0  0.42 0.04 0  0.44 0.04 0  0.46 0.04 0  0.48 0.04 0  0.5 0.04 0  0.52 0.04 0  0.54 0.04 0  0.5600000000000001 0.04 0  0.58 0.04 0  0.6 0.04 0  0.62 0.04 0  0.64 0.04 0  0.66 0.04 0  0.68 0.04 0  0.7 0.04 0  0.72 0.04 0  0.74 0.04 0  0.76 0.04 0  0.78 0.04 0  0.8 0.04 0  0.82 0.04 0  0.84 0.04 0  0.86 0.04 0  0.88 0.04 0  0.9 0.04 0  0.92 0.04 0  0.9399999999999999 0.04 0  0.96 0.04 0  0.98 0.04 0  1 0.04 0  1.02 0.04 0  1.04 0.04 0  1.06 0.04 0  1.08 0.04 0  1.1 0.04 0  1.12 0.04 0  1.14 0.04 0  1.16 0.04 0  1.18 0.04 0  1.2 0.04 0  1.22 0.04 0  1.24 0.04 0  1.26 0.04 0  1.28 0.04 0  1.3 0.04 0  1.32 0.04 0  1.34 0.04 0  1.36 0.04 0  1.38 0.04 0  1.4 0.04 0  1.42 0.04 0  1.44 0.04 0  1.46 0.04 0  1.48 0.04 0  1.5 0.04 0  1.52 0.04 0  1.54 0.04 0  1.56 0.04 0  1.58 0.04 0  1.6 0.04 0  1.62 0.04 0  1.64 0.04 0  1.66 0.04 0  1.68 0.04 0  1.7 0.04 0  1.72 0.04 0  1.74 0.04 0  1.76 0.04 0  1.78 0.04 0  1.8 0.04 0  1.82 0.04 0  1.84 0.04 0  1.86 0.04 0  1.88 0.04 0  1.9 0.04 0  1.92 0.04 0  1.94 0.04 0  1.96 0.04 0  1.98 0.04 0  2 0.04 0  0 0.06 0  0.02 0.06 0  0.04 0.06 0  0.06 0.06 0  0.08 0.06 0  0.1 0.06 0  0.12 0.06 0  0.14 0.06 0  0.16 0.06 0  0.18 0.06 0  0.2 0.06 0  0.22 0.06 0  0.24 0.06 0  0.26 0.06 0  0.28 0.06 0  0.3 0.06 0  0.32 0.06 0  0.34 0.06 0  0.36 0.06 0  0.38 0.06 0  0.4 0.06 0  0.42 0.06 0  0.44 0.06 0  0.46 0.06 0  0.48 0.06 0  0.5 0.06 0  0.52 0.06 0  0.54 0.06 0  0.5600000000000001 0.06 0  0.58 0.06 0  0.6 0.06 0  0.62 0.06 0  0.64 0.06 0  0.66 0.06 0  0.68 0.06 0  0.7 0.06 0  0.72 0.06 0  0.74 0.06 0  0.76 0.06 0  0.78 0.06 0  0.8 0.06 0  0.82 0.06 0  0.84 0.06 0  0.86 0.06 0  0.88 0.06 0  0.9 0.06 0  0.92 0.06 0  0.9399999999999999 0.06 0  0.96 0.06 0  0.98 0.06 0  1 0.06 0  1.02 0.06 0  1.04 0.06 0  1.06 0.06 0  1.08 0.06 0  1.1 0.06 0  1.12 0.06 0  1.14 0.06 0  1.16 0.06 0  1.18 0.06 0  1.2 0.06 0  1.22 0.06 0  1.24 0.06 0  1.26 0.06 0  1.28 0.06 0  1.3 0.06 0  1.32 0.06 0  1.34 0.06 0  1.36 0.06 0  1.38 0.06 0  1.4 0.06 0  1.42 0.06 0  1.44 0.06 0  1.46 0.06 0  1.48 0.06 0  1.5 0.06 0  1.52 0.06 0  1.54 0.06 0  1.56 0.06 0  1.58 0.06 0  1.6 0.06 0  1.62 0.06 0  1.64 0.06 0  1.66 0.06 0  1.68 0.06 0  1.7 0.06 0  1.72 0.06 0  1.74 0.06 0  1.76 0.06 0  1.78 0.06 0  1.8 0.06 0  1.82 0.06 0  1.84 0.06 0  1.86 0.06 0  1.88 0.06 0  1.9 0.06 0  1.92 0.06 0  1.94 0.06 0  1.96 0.06 0  1.98 0.06 0  2 0.06 0  0 0.08 0  0.02 0.08 0  0.04 0.08 0  0.06 0.08 0  0.08 0.08 0  0.1 0.08 0  0.12 0.08 0  0.14 0.08 0  0.16 0.08 0  0.18 0.08 0  0.2 0.08 0  0.22 0.08 0  0.24 0.08 0  0.26 0.08 0  0.28 0.08 0  0.3 0.08 0  0.32 0.08 0  0.34 0.08 0  0.36 0.08 0  0.38 0.08 0  0.4 0.08 0  0.42 0.08 0  0.44 0.08 0  0.46 0.08 0  0.48 0.08 0  0.5 0.08 0  0.52 0.08 0  0.54 0.08 0  0.5600000000000001 0.08 0  0.58 0.08 0  0.6 0.08 0  0.62 0.08 0  0.64 0.08 0  0.66 0.08 0  0.68 0.08 0  0.7 0.08 0  0.72 0.08 0  0.74 0.08 0  0.76 0.08 0  0.78 0.08 0  0.8 0.08 0  0.82 0.08 0  0.84 0.08 0  0.86 0.08 0  0.88 0.08 0  0.9 0.08 0  0.92 0.08 0  0.9399999999999999 0.08 0  0.96 0.08 0  0.98 0.08 0  1 0.08 0  1.02 0.08 0  1.04 0.08 0  1.06 0.08 0  1.08 0.08 0  1.1 0.08 0  1.12 0.08 0  1.14 0.08 0  1.16 0.08 0  1.18 0.08 0  1.2 0.08 0  1.22 0.08 0  1.24 0.08 0  1.26 0.08 0  1.28 0.08 0  1.3 0.08 0  1.32 0.08 0  1.34 0.08 0  1.36 0.08 0  1.38 0.08 0  1.4 0.08 0  1.42 0.08 0  1.44 0.08 0  1.46 0.08 0  1.48 0.08 0  1.5 0.08 0  1.52 0.08 0  1.54 0.08 0  1.56 0.08 0  1.58 0.08 0  1.6 0.08 0  1.62 0.08 0  1.64 0.08 0  1.66 0.08 0  1.68 0.08 0  1.7 0.08 0  1.72 0.08 0  1.74 0.08 0  1.76 0.08 0  1.78 0.08 0  1.8 0.08 0  1.82 0.08 0  1.84 0.08 0  1.86 0.08 0  1.88 0.08 0  1.9 0.08 0  1.92 0.08 0  1.94 0.08 0  1.96 0.08 0  1.98 0.08 0  2 0.08 0  0 0.1 0  0.02 0.1 0  0.04 0.1 0  0.06 0.1 0  0.08 0.1 0  0.1 0.1 0  0.12 0.1 0  0.14 0.1 0  0.16 0.1 0  0.18 0.1 0  0.2 0.1 0  0.22 0.1 0  0.24 0.1 0  0.26 0.1 0  0.28 0.1 0  0.3 0.1 0  0.32 0.1 0  0.34 0.1 0  0.36 0.1 0  0.38 0.1 0  0.4 0.1 0  0.42 0.1 0  0.44 0.1 0  0.46 0.1 0  0.48 0.1 0  0.5 0.1 0  0.52 0.1 0  0.54 0.1 0  0.5600000000000001 0.1 0  0.58 0.1 0  0.6 0.1 0  0.62 0.1 0  0.64 0.1 0  0.66 0.1 0  0.68 0.1 0  0.7 0.1 0  0.72 0.1 0  0.74 0.1 0  0.76 0.1 0  0.78 0.1 0  0.8 0.1 0  0.82 0.1 0  0.84 0.1 0  0.86 0.1 0  0.88 0.1 0  0.9 0.1 0  0.92 0.1 0  0.9399999999999999 0.1 0  0.96 0.1 0  0.98 0.1 0  1 0.1 0  1.02 0.1 0  1.04 0.1 0  1.06 0.1 0  1.08 0.1 0  1.1 0.1 0  1.12 0.1 0  1.14 0.1 0  1.16 0.1 0  1.18 0.1 0  1.2 0.1 0  1.22 0.1 0  1.24 0.1 0  1.26 0.1 0  1.28 0.1 0  1.3 0.1 0  1.32 0.1 0  1.34 0.1 0  1.36 0.1 0  1.38 0.1 0  1.4 0.1 0  1.42 0.1 0  1.44 0.1 0  1.46 0.1 0  1.48 0.1 0  1.5 0.1 0  1.52 0.1 0  1.54 0.1 0  1.56 0.1 0  1.58 0.1 0  1.6 0.1 0  1.62 0.1 0  1.64 0.1 0  1.66 0.1 0  1.68 0.1 0  1.7 0.1 0  1.72 0.1 0  1.74 0.1 0  1.76 0.1 0  1.78 0.1 0  1.8 0.1 0  1.82 0.1 0  1.84 0.1 0  1.86 0.1 0  1.88 0.1 0  1.9 0.1 0  1.92 0.1 0  1.94 0.1 0  1.96 0.1 0  1.98 0.1 0  2 0.1 0  0 0.12 0  0.02 0.12 0  0.04 0.12 0  0.06 0.12 0  0.08 0.12 0  0.1 0.12 0  0.12 0.12 0  0.14 0.12 0  0.16 0.12 0  0.18 0.12 0  0.2 0.12 0  0.22 0.12 0  0.24 0.12 0  0.26 0.12 0  0.28 0.12 0  0.3 0.12 0  0.32 0.12 0  0.34 0.12 0  0.36 0.12 0  0.38 0.12 0  0.4 0.12 0  0.42 0.12 0  0.44 0.12 0  0.46 0.12 0  0.48 0.12 0  0.5 0.12 0  0.52 0.12 0  0.54 0.12 0  0.5600000000000001 0.12 0  0.58 0.12 0  0.6 0.12 0  0.62 0.12 0  0.64 0.12 0  0.66 0.12 0  0.68 0.12 0  0.7 0.12 0  0.72 0.12 0  0.74 0.12 0  0.76 0.12 0  0.78 0.12 0  0.8 0.12 0  0.82 0.12 0  0.84 0.12 0  0.86 0.12 0  0.88 0.12 0  0.9 0.12 0  0.92 0.12 0  0.9399999999999999 0.12 0  0.96 0.12 0  0.98 0.12 0  1 0.12 0  1.02 0.12 0  1.04 0.12 0  1.06 0.12 0  1.08 0.12 0  1.1 0.12 0  1.12 0.12 0  1.14 0.12 0  1.16 0.12 0  1.18 0.12 0  1.2 0.12 0  1.22 0.12 0  1.24 0.12 0  1.26 0.12 0  1.28 0.12 0  1.3 0.12 0  1.32 0.12 0  1.34 0.12 0  1.36 0.12 0  1.38 0.12 0  1.4 0.12 0  1.42 0.12 0  1.44 0.12 0  1.46 0.12 0  1.48 0.12 0  1.5 0.12 0  1.52 0.12 0  1.54 0.12 0  1.56 0.12 0  1.58 0.12 0  1.6 0.12 0  1.62 0.12 0  1.64 0.12 0  1.66 0.12 0  1.68 0.12 0  1.7 0.12 0  1.72 0.12 0  1.74 0.12 0  1.76 0.12 0  1.78 0.12 0  1.8 0.12 0  1.82 0.12 0  1.84 0.12 0  1.86 0.12 0  1.88 0.12 0  1.9 0.12 0  1.92 0.12 0  1.94 0.12 0  1.96 0.12 0  1.98 0.12 0  2 0.12 0  0 0.14 0  0.02 0.14 0  0.04 0.14 0  0.06 0.14 0  0.08 0.14 0  0.1 0.14 0  0.12 0.14 0  0.14 0.14 0  0.16 0.14 0  0.18 0.14 0  0.2 0.14 0  0.22 0.14 0  0.24 0.14 0  0.26 0.14 0  0.28 0.14 0  0.3 0.14 0  0.32 0.14 0  0.34 0.14 0  0.36 0.14 0  0.38 0.14 0  0.4 0.14 0  0.42 0.14 0  0.44 0.14 0  0.46 0.14 0  0.48 0.14 0  0.5 0.14 0  0.52 0.14 0  0.54 0.14 0  0.5600000000000001 0.14 0  0.58 0.14 0  0.6 0.14 0  0.62 0.14 0  0.64 0.14 0  0.66 0.14 0  0.68 0.14 0  0.7 0.14 0  0.72 0.14 0  0.74 0.14 0  0.76 0.14 0  0.78 0.14 0  0.8 0.14 0  0.82 0.14 0  0.84 0.14 0  0.86 0.14 0  0.88 0.14 0  0.9 0.14 0  0.92 0.14 0  0.9399999999999999 0.14 0  0.96 0.14 0  0.98 0.14 0  1 0.14 0  1.02 0.14 0  1.04 0.14 0  1.06 0.14 0  1.08 0.14 0  1.1 0.14 0  1.12 0.14 0  1.14 0.14 0  1.16 0.14 0  1.18 0.14 0  1.2 0.14 0  1.22 0.14 0  1.24 0.14 0  1.26 0.14 0  1.28 0.14 0  1.3 0.14 0  1.32 0.14 0  1.34 0.14 0  1.36 0.14 0  1.38 0.14 0  1.4 0.14 0  1.42 0.14 0  1.44 0.14 0  1.46 0.14 0  1.48 0.14 0  1
[...]
<PointData  Scalars="f_1069818"> 
<DataArray  type="Float64"  Name="f_1069818"  format="ascii">8.3265081695648108e-04  5.5525154024333204e-04  5.5525154036067438e-04  5.5525154060097803e-04  5.5525154106225521e-04  5.5525154192515448e-04  5.5525154351507571e-04  5.5525154640845991e-04  5.5525155161201701e-04  5.5525156086097093e-04  5.5525157711056505e-04  5.5525160534246451e-04  5.5525165389123238e-04  5.5525173664968416e-04  5.5525187680167292e-04  5.5525211327626511e-04  5.5525251211443409e-04  5.5525318666252660e-04  5.5525433323399761e-04  5.5525629264047604e-04  5.5525965199014081e-04  5.5526540278599812e-04  5.5527516505262753e-04  5.5529146403469453e-04  5.5531799618939329e-04  5.5535974270799976e-04  5.5542270337219455e-04  5.5551299442047053e-04  5.5563518410222735e-04  5.5579010638370503e-04  5.5597289505015005e-04  5.5617220615168813e-04  5.5637128122902851e-04  5.5655087950295056e-04  5.5669321820997432e-04  5.5678531235385585e-04  5.5682046923629226e-04  5.5679814968874084e-04  5.5672340793771981e-04  5.5660622476309568e-04  5.5646004010590953e-04  5.5629942742560685e-04  5.5613765274719056e-04  5.5598495969627312e-04  5.5584791280059395e-04  5.5572965528619957e-04  5.5563068891191459e-04  5.5554978813400057e-04  5.5548480559996008e-04  5.5543326839393179e-04  5.5539275598803686e-04  5.5536109964785083e-04  5.5533645890156770e-04  5.5531732517766924e-04  5.5530248919096403e-04  5.5529099514749030e-04  5.5528209422406620e-04  5.5527520287911199e-04  5.5526986780113439e-04  5.5526573748058668e-04  5.5526253962335419e-04  5.5526006341779458e-04  5.5525814570612684e-04  5.5525666023690070e-04  5.5525550932574222e-04  5.5525461739133373e-04  5.5525392594896661e-04  5.5525338973614247e-04  5.5525297371690073e-04  5.5525265076744742e-04  5.5525239988940501e-04  5.5525220483090799e-04  5.5525205302239214e-04  5.5525193475429533e-04  5.5525184253972428e-04  5.5525177061761148e-04  5.5525171456206445e-04  5.5525167097241954e-04  5.5525163722620809e-04  5.5525161128354807e-04  5.5525159153576394e-04  5.5525157669297374e-04  5.5525156570516792e-04  5.5525155771013002e-04  5.5525155200033323e-04  5.5525154800127195e-04  5.5525154525509139e-04  5.5525154340564837e-04  5.5525154218338910e-04  5.5525154139001397e-04  5.5525154088368104e-04  5.5525154056561819e-04  5.5525154036874832e-04  5.5525154024856332e-04  5.5525154017613319e-04  5.5525154013303768e-04  5.5525154010775679e-04  5.5525154009322946e-04  5.5525154008526025e-04  5.5525154008152691e-04  1.6639226780454860e-03  5.5525154023150286e-04  2.7769793465017175e-04  2.7769793471310789e-04  2.7769793484517727e-04  2.7769793510146044e-04  2.7769793558487930e-04  2.7769793648251874e-04  2.7769793812846817e-04  2.7769794111047816e-04  2.7769794644812406e-04  2.7769795588660997e-04  2.7769797237719269e-04  2.7769800086136452e-04  2.7769804955996290e-04  2.7769813212834949e-04  2.7769827134846306e-04  2.7769850561887711e-04  2.7769890057974532e-04  2.7769957002809082e-04  2.7770071301949916e-04  2.7770267745624871e-04  2.7770606311655009e-04  2.7771187537000065e-04  2.7772172808707948e-04  2.7773806165838318e-04  2.7776428389169000e-04  2.7780466751874534e-04  2.7786379074953507e-04  2.7794537215782570e-04  2.7805061929855044e-04  2.7817664445294401e-04  2.7831572749414132e-04  2.7845596074868351e-04  2.7858338335249276e-04  2.7868501328034409e-04  2.7875144058456448e-04  2.7877786727625636e-04  2.7876380020750265e-04  2.7871262171394321e-04  2.7863130133469770e-04  2.7852943040822687e-04  2.7841748539168115e-04  2.7830496610406063e-04  2.7819912142144784e-04  2.7810449849161549e-04  2.7802317938569105e-04  2.7795538606628753e-04  2.7790015627442236e-04  2.7785592018240350e-04  2.7782091627590066e-04  2.7779344725322374e-04  2.7777200912896101e-04  2.7775533590979951e-04  2.7774239605954170e-04  2.7773236614877465e-04  2.7772459720085092e-04  2.7771858172178146e-04  2.7771392470570373e-04  2.7771031952650131e-04  2.7770752852284130e-04  2.7770536763921632e-04  2.7770369439940350e-04  2.7770239854360367e-04  2.7770139475809513e-04  2.7770061703619566e-04  2.7770001430816639e-04  2.7769954705690809e-04  2.7769918469915653e-04  2.7769890356089456e-04  2.7769868531344840e-04  2.7769851576628493e-04  2.7769838393558352e-04  2.7769828132557362e-04  2.7769820137346992e-04  2.7769813901945290e-04  2.7769809037148883e-04  2.7769805244159457e-04  2.7769802293612983e-04  2.7769800008805906e-04  2.7769798252360895e-04  2.7769796915883769e-04  2.7769795912296305e-04  2.7769795170500092e-04  2.7769794631915236e-04  2.7769794248338721e-04  2.7769793980571820e-04  2.7769793797378228e-04  2.7769793674501194e-04  2.7769793593636447e-04  2.7769793541372156e-04  2.7769793508160035e-04  2.7769793487385062e-04  2.7769793474578623e-04  2.7769793466791141e-04  2.7769793462115644e-04  2.7769793459343176e-04  2.7769793457721323e-04  2.7769793456790200e-04  2.7769793456276434e-04  2.7769793456026038e-04  5.5525154008146879e-04  5.5525154030904966e-04  2.7769793469509794e-04  2.7769793479118183e-04  2.7769793499477825e-04  2.7769793539410731e-04  2.7769793615629249e-04  2.7769793758902121e-04  2.7769794024863013e-04  2.7769794512537931e-04  2.7769795395498459e-04  2.7769796973336201e-04  2.7769799755479060e-04  2.7769804596430549e-04  2.7769812913990179e-04  2.7769827045975620e-04  2.7769850849493740e-04  2.7769890745912238e-04  2.7769957610718730e-04  2.7770070270765425e-04  2.7770261981284770e-04  2.7770592135286726e-04  2.7771166417130979e-04  2.7772168956758682e-04  2.7773908229992370e-04  2.7776872017415991e-04  2.7781773208373237e-04  2.7789548034793624e-04  2.7801250037801621e-04  2.7817789507125567e-04  2.7839532270583950e-04  2.7865900558440626e-04  2.7895184223454539e-04  2.7924686568536994e-04  2.7951248468755760e-04  2.7972016804360221e-04  2.7985068659343765e-04  2.7989562613372728e-04  2.7985529536696946e-04  2.7973765999769149e-04  2.7955859266216480e-04  2.7933979376378151e-04  2.7910440686199962e-04  2.7887252001163797e-04  2.7865852717770735e-04  2.7847058901839884e-04  2.7831161864353061e-04  2.7818089374001325e-04  2.7807560145799557e-04  2.7799202869364714e-04  2.7792635029327172e-04  2.7787506459835316e-04  2.7783517520941798e-04  2.7780422145143915e-04  2.7778023296270082e-04  2.7776165538020910e-04  2.7774727310610453e-04  2.7773614027834477e-04  2.7772752297133591e-04  2.7772085252736274e-04  2.7771568866964978e-04  2.7771169064202066e-04  2.7770859476104580e-04  2.7770619701306966e-04  2.7770433956751916e-04  2.7770290032506066e-04  2.7770178482229433e-04  2.7770091996499137e-04  2.7770024918068810e-04  2.7769972867309936e-04  2.7769932453024638e-04  2.7769901049316034e-04  2.7769876623514250e-04  2.7769857603477505e-04  2.7769842775146483e-04  2.7769831203181710e-04  2.7769822169026450e-04  2.7769815121989950e-04  2.7769809640093226e-04  2.7769805398500348e-04  2.7769802144284435e-04  2.7769799676896780e-04  2.7769797833912909e-04  2.7769796481452448e-04  2.7769795508314645e-04  2.7769794822604091e-04  2.7769794349641661e-04  2.7769794030251855e-04  2.7769793818934005e-04  2.7769793681802326e-04  2.7769793594408583e-04  2.7769793539637465e-04  2.7769793505836486e-04  2.7769793485270532e-04  2.7769793472920434e-04  2.7769793465594404e-04  2.7769793461300145e-04  2.7769793458815554e-04  2.7769793457403967e-04  2.7769793456632687e-04  2.7769793456260740e-04  5.5525154008493650e-04  5.5525154045264432e-04  2.7769793478057416e-04  2.7769793494121715e-04  2.7769793528478883e-04  2.7769793596674419e-04  2.7769793728537798e-04  2.7769793979756413e-04  2.7769794452436376e-04  2.7769795330792526e-04  2.7769796941774517e-04  2.7769799855867838e-04  2.7769805051289654e-04  2.7769814176867351e-04  2.7769829968758188e-04  2.7769856913388878e-04  2.7769902326961487e-04  2.7769978193168846e-04  2.7770104471312886e-04  2.7770315342604966e-04  2.7770671268189404e-04  2.7771282029149564e-04  2.7772348973448643e-04  2.7774237233968945e-04  2.7777587109605961e-04  2.7783461257316344e-04  2.7793491915996491e-04  2.7809935644416880e-04  2.7835476746761569e-04  2.7872604263411979e-04  2.7922538014988750e-04  2.7984103925301411e-04  2.8053178648894606e-04  2.8122990998171148e-04  2.8185495342476530e-04  2.8233567320191071e-04  2.8262763578373033e-04  2.8271499164334127e-04  2.8260076368308068e-04  2.8230445011051124e-04  2.8186621251432903e-04  2.8134139410608349e-04  2.8078763227605395e-04  2.8025253727229332e-04  2.7976787514249286e-04  2.7934950164134909e-04  2.7900095314322912e-04  2.7871800851654360e-04  2.7849249568381732e-04  2.7831495434323865e-04  2.7817626051467086e-04  2.7806841201503089e-04  2.7798476225367771e-04  2.7791996659903140e-04  2.7786980733093076e-04  2.7783098872399305e-04  2.7780094876028673e-04  2.7777770153335381e-04  2.7775970973049040e-04  2.7774578385441278e-04  2.7773500371565884e-04  2.7772665747581072e-04  2.7772019446162629e-04  2.7771518870769817e-04  2.7771131073504759e-04  2.7770830568794153e-04  2.7770597640989179e-04  2.7770417034724150e-04  2.7770276942310602e-04  2.7770168221792803e-04  2.7770083793536766e-04  2.7770018174845572e-04  2.7769967121244208e-04  2.7769927350004679e-04  2.7769896326832610e-04  2.7769872100678634e-04  2.7769853174697896e-04  2.7769838403947817e-04  2.7769826912897903e-04  2.7769818028305329e-04  2.7769811225198797e-04  2.7769806085144243e-04  2.7769802266304901e-04  2.7769799484130253e-04  2.7769797500385975e-04  2.7769796117466230e-04  2.7769795175023953e-04  2.7769794546814912e-04  2.7769794136784558e-04  2.7769793874361559e-04  2.7769793709416749e-04  2.7769793607438660e-04  2.7769793545330898e-04  2.7769793508021045e-04  2.7769793485889492e-04  2.7769793472915560e-04  2.7769793465396878e-04  2.7769793461093794e-04  2.7769793458673968e-04  2.7769793457363889e-04  2.7769793456737198e-04  5.5525154009227016e-04  5.5525154069804145e-04  2.7769793492858440e-04  2.7769793520377437e-04  2.7769793579808972e-04  2.7769793699175988e-04  2.7769793932966010e-04  2.7769794384352556e-04  2.7769795245274567e-04  2.7769796867047368e-04  2.7769799881933435e-04  2.7769805407459435e-04  2.7769815381275658e-04  2.7769833096578255e-04  2.7769864040546954e-04  2.7769917193522583e-04  2.7770007062212027e-04  2.7770156994155580e-04  2.7770404978725883e-04  2.7770814634383922e-04  2.7771497177071438e-04  2.7772655840929092e-04  2.7774673008259393e-04  2.7778270402457910e-04  2.7784776425311897e-04  2.7796514299224692e-04  2.7817251987611962e-04  2.7852503986307427e-04  2.7909255080516834e-04  2.7994518042925463e-04  2.8112405972960803e-04  2.8260853025175472e-04  2.8429910182668392e-04  2.8602085890748778e-04  2.8755831097689879e-04  2.8872202456472064e-04  2.8940391346723272e-04  2.8957674313749441e-04  2.8925185395335418e-04  2.8847605168221858e-04  2.8735754975308422e-04  2.8604685384081899e-04  2.8469493212256327e-04  2.8341787750197744e-04  2.8228586865453888e-04  2.8132738800982132e-04  2.8054189121613153e-04  2.7991279445654368e-04  2.7941670707201541e-04  2.7902923820781087e-04  2.7872824061096670e-04  2.7849506649359966e-04  2.7831465346133516e-04  2.7817512071159689e-04  2.7806721332412692e-04  2.7798375663819658e-04  2.7791920006075199e-04  2.7786925492955010e-04  2.7783060795242729e-04  2.7780069847994530e-04  2.7777754721092788e-04  2.7775962380972732e-04  2.7774574482648578e-04  2.7773499511206818e-04  2.7772666700495464e-04  2.7772021322623101e-04  2.7771521045572310e-04  2.7771133115913862e-04  2.7770832181712134e-04  2.7770598612952992e-04  2.7770417206174851e-04  2.7770276185804600e-04  2.7770166434848154e-04  2.7770080902328421e-04  2.7770014146448891e-04  2.7769961981080133e-04  2.7769921199418031e-04  2.7769889353991951e-04  2.7769864577748124e-04  2.7769845436869566e-04  2.7769830811404187e-04  2.7769819803234155e-04  2.7769811671415152e-04  2.7769805792600622e-04  2.7769801640802814e-04  2.7769798778540716e-04  2.7769796851867729e-04  2.7769795584344284e-04  2.7769794768142577e-04  2.7769794252801075e-04  2.7769793933174106e-04  2.7769793738098548e-04  2.7769793620755948e-04  2.7769793551096371e-04  2.7769793510241920e-04  2.7769793486551994e-04  2.7769793472966708e-04  2.7769793465269588e-04  2.7769793460982089e-04  2.7769793458680316e-04  2.7769793457586161e-04  5.5525154010541795e-04  5.5525154110093000e-04  2.7769793517411776e-04  2.7769793564455590e-04  2.7769793667075055e-04  2.7769793875618030e-04  2.7769794289324052e-04  2.7769795098870004e-04  2.7769796664404143e-04  2.7769799655378804e-04  2.7769805295306901e-04  2.7769815779345153e-04  2.7769834966916807e-04  2.7769869496081670e-04  2.7769930521985586e-04  2.7770036357956839e-04  2.7770216440904124e-04  2.7770517410370736e-04  2.7771013116518187e-04  2.7771823063456688e-04  2.7773150132387578e-04  2.7775361573603740e-04  2.7779160602869261e-04  2.7785929064322345e-04  2.7798350677559803e-04  2.7821407485097832e-04  2.7863700416998444e-04  2.7938682118265482e-04  2.8064732091962380e-04  2.8262219092713565e-04  2.8545583776318299e-04  2.8913518361498616e-04  2.9343435319567390e-04  2.9789472845222919e-04  3.0189922958189750e-04  3.0489071580321422e-04  3.0657698228206491e-04  3.0692338966147178e-04  3.0596059492137695e-04  3.0379785476324171e-04  3.0076502047714015e-04  2.9731523758843057e-04  2.9387085641750533e-04  2.9071886498048614e-04  2.8800553462471812e-04  2.8576542289401391e-04  2.8396710395295268e-04  2.8255034711605883e-04  2.8144715913706230e-04  2.8059333796973579e-04  2.7993421781804883e-04  2.7942577200892849e-04  2.7903347217314274e-04  2.7873062761760105e-04  2.7849672658975807e-04  2.7831599234028320e-04  2.7817627988179037e-04  2.7806824127772455e-04  2.7798467244082557e-04  2.7792001446501856e-04  2.7786997605715294e-04  2.7783124231716300e-04  2.7780125135184899e-04  2.7777802331466846e-04  2.7776002803140077e-04  2.7774608253419686e-04  2.7773527203571338e-04  2.7772688884378710e-04  2.7772038520145723e-04  2.7771533696534250e-04  2.7771141560997144e-04  2.7770836665395057e-04  2.7770599305494090e-04  2.7770414242895951e-04  2.7770269720706579e-04  2.7770156702818438e-04  2.7770068279088668e-04  2.7769999189572047e-04  2.7769945433517664e-04  2.7769903943416184e-04  2.7769872318120106e-04  2.7769848617671802e-04  2.7769831222907668e-04  2.7769818755427869e-04  2.7769810042955101e-04  2.7769804108911393e-04  2.7769800166989366e-04  2.7769797609286109e-04  2.7769795985168813e-04  2.7769794973746568e-04  2.7769794354728282e-04  2.7769793981688440e-04  2.7769793759976029e-04  2.7769793629847574e-04  2.7769793554351021e-04  2.7769793511025950e-04  2.7769793486428726e-04  2.7769793472626805e-04  2.7769793465009097e-04  2.7769793460952620e-04  2.7769793459035219e-04  5.5525154012783654e-04  5.5525154174483930e-04  2.7769793557038834e-04  2.7769793636502608e-04  2.7769793811612681e-04  2.7769794171696334e-04  2.7769794895310022e-04  2.7769796330749631e-04  2.7769799146411917e-04  2.7769804605361182e-04  2.7769815055225799e-04  2.7769834779936667e-04  2.7769871437274889e-04  2.7769938404073250e-04  2.7770058458675490e-04  2.7770269332617550e-04  2.7770631778033000e-04  2.7771241108348588e-04  2.7772244385158493e-04  2.7773869549153738e-04  2.7776484476752785e-04  2.7780732067169198e-04  2.7787845042026539e-04  2.7800341224200662e-04  2.7823420545493787e-04  2.7867443252391092e-04  2.7951672362127900e-04  2.8108758291097298e-04  2.8387809137626744e-04  2.8851021878520205e-04  2.9553805230551775e-04  3.0515288932891010e-04  3.1699135844165909e-04  3.2987676147957422e-04  3.4179997637104315e-04  3.5072017977983154e-04  3.5557785297916049e-04  3.5636409525491866e-04  3.5311166509133333e-04  3.4606603569539864e-04  3.3656074757046865e-04  3.2630654985583675e-04  3.1664835362993327e-04  3.0827615204174021e-04  3.0140591923030199e-04  2.9595291756387941e-04  2.9170849588618883e-04  2.8844392548109274e-04  2.8594744113234164e-04  2.8403991998346152e-04  2.8258045180354628e-04  2.8146162474765237e-04  2.8060213606906099e-04  2.7994070189902838e-04  2.7943104809252087e-04  2.7903794254374579e-04  2.7873446283223629e-04  2.7850002223673789e-04  2.7831882294030195e-04  2.7817871047978180e-04  2.7807032723961469e-04  2.7798645822025219e-04  2.7792153478530630e-04  2.7787125922863862e-04  2.7783231338682695e-04  2.7780213375261267e-04  2.7777873907723345e-04  2.7776059718810024e-04  2.7774652236247792e-04  2.7773559654280185e-04  2.7772710864717607e-04  2.7772050783105647e-04  2.7771536756737090e-04  2.7771135802277293e-04  2.7770822481173438e-04  2.7770577261406615e-04  2.7770385237030983e-04  2.7770235098438696e-04  2.7770118275025280e-04  2.7770028208617324e-04  2.7769959751711338e-04  2.7769908706526641e-04  2.7769871520110417e-04  2.7769845127278558e-04  2.7769826900990848e-04  2.7769814652589189e-04  2.7769806632385526e-04  2.7769801504865785e-04  2.7769798296329700e-04  2.7769796326296666e-04  2.7769795136651869e-04  2.7769794428700919e-04  2.7769794012864993e-04  2.7769793771490354e-04  2.7769793632919087e-04  2.7769793554199135e-04  2.7769793509945076e-04  2.7769793485350427e-04  2.7769793471899945e-04  2.7769793464795911e-04  2.7769793461456731e-04  5.5525154016518525e-04  5.5525154275051704e-04  2.7769793619532014e-04  2.7769793751606639e-04  2.7769794045657235e-04  2.7769794657557810e-04  2.7769795903381984e-04  2.7769798409327338e-04  2.7769803397123272e-04  2.7769813215909887e-04  2.7769832311721858e-04  2.7769868950583941e-04  2.7769938191659336e-04  2.7770066839842447e-04  2.7770301355431492e-04  2.7770719868622196e-04  2.7771449405078241e-04  2.7772689183544155e-04  2.7774741205444721e-04  2.7778053685985864e-04  2.7783300865176508e-04  2.7791576629649387e-04  2.7804909963811102e-04  2.7827570378207697e-04  2.7869038148656744e-04  2.7949934159061089e-04  2.8112252726786568e-04  2.8434650130641971e-04  2.9051403210933783e-04  3.0168460243392754e-04  3.2033743329729422e-04  3.4869621074139407e-04  3.8832928672232207e-04  4.3808871903200364e-04  4.9044190845647171e-04  5.3263006621905268e-04  5.5572731691735163e-04  5.5920086660146782e-04  5.4222567717130343e-04  5.0565017384490252e-04  4.6028366018181435e-04  4.1741583886251019e-04  3.8238294094736463e-04  3.5549367771457176e-04  3.3551357577566625e-04  3.2082635314381521e-04  3.1003154795263054e-04  3.0208020564704310e-04  2.9619081871339292e-04  2.9179107526830853e-04  2.8847829709691987e-04  2.8596833262929785e-04  2.8405660907092215e-04  2.8259477838058628e-04  2.8147399702095795e-04  2.8061281185639371e-04  2.7994987208821467e-04  2.7943888642731525e-04  2.7904463058452871e-04  2.7874017196782201e-04  2.7850489842852673e-04  2.7832298030397066e-04  2.7818223538131218e-04  2.7807328926059052e-04  2.7798891932098605e-04  2.7792355331090292e-04  2.7787288993315259e-04  2.7783360558500321e-04  2.7780312937620091e-04  2.7777947153793232e-04  2.7776109126028656e-04  2.7774679505068836e-04  2.7773565885310633e-04  2.7772696820630311e-04  2.7772017230796983e-04  2.7771484873243636e-04  2.7771067589767970e-04  2.7770741078588418e-04  2.7770487009009821e-04  2.7770291390694904e-04  2.7770143204226415e-04  2.7770033356832203e-04  2.7769954021206617e-04  2.7769898343265307e-04  2.7769860405945192e-04  2.7769835289368400e-04  2.7769819099655342e-04  2.7769808911482207e-04  2.7769802633229469e-04  2.7769798833787159e-04  2.7769796570046440e-04  2.7769795239517003e-04  2.7769794466927291e-04  2.7769794023286182e-04  2.7769793771204840e-04  2.7769793629426416e-04  2.7769793550502358e-04  2.7769793507062248e-04  2.7769793483526988e-04  2.7769793471201014e-04  2.7769793465440816e-04  5.5525154022639692e-04  5.5525154428612083e-04  2.7769793715886238e-04  2.7769793931391407e-04  2.7769794416162717e-04  2.7769795437054964e-04  2.7769797543095257e-04  2.7769801839371900e-04  2.7769810518877934e-04  2.7769827875092815e-04  2.7769862190506325e-04  2.7769929176153530e-04  2.7770058061149321e-04  2.7770302009296399e-04  2.7770755194297118e-04  2.7771579323234981e-04  2.7773042074605774e-04  2.7775567987520602e-04  2.7779798648587772e-04  2.7786657444236513e-04  2.7797431568147885e-04  2.7813969396017275e-04  2.7839355