<?xml version="1.0"?>
<VTKFile type="UnstructuredGrid"  version="0.1"  >
<UnstructuredGrid>
<Piece  NumberOfPoints="5151" NumberOfCells="10000">
<Points>
<DataArray  type="Float64"  NumberOfComponents="3"  format="ascii">0 0 0  0.02 0 0  0.04 0 0  0.06 0 0  0.08 0 0  0.1 0 0  0.12 0 0  0.14 0 0  0.16 0 0  0.18 0 0  0.2 0 0  0.22 0 0  0.24 0 0  0.26 0 0  0.28 0 0  0.3 0 0  0.32 0 0  0.34 0 0  0.36 0 0  0.38 0 0  0.4 0 0  0.42 0 0  0.44 0 0  0.46 0 0  0.48 0 0  0.5 0 0  0.52 0 0  0.54 0 0  0.5600000000000001 0 0  0.58 0 0  0.6 0 0  0.62 0 0  0.64 0 0  0.66 0 0  0.68 0 0  0.7 0 0  0.72 0 0  0.74 0 0  0.76 0 0  0.78 0 0  0.8 0 0  0.82 0 0  0.84 0 0  0.86 0 0  0.88 0 0  0.9 0 0  0.92 0 0  0.9399999999999999 0 0  0.96 0 0  0.98 0 0  1 0 0  1.02 0 0  1.04 0 0  1.06 0 0  1.08 0 0  1.1 0 0  1.12 0 0  1.14 0 0  1.16 0 0  1.18 0 0  1.2 0 0  1.22 0 0  1.24 0 0  1.26 0 0  1.28 0 0  1.3 0 0  1.32 0 0  1.34 0 0  1.36 0 0  1.38 0 0  1.4 0 0  1.42 0 0  1.44 0 0  1.46 0 0  1.48 0 0  1.5 0 0  1.52 0 0  1.54 0 0  1.56 0 0  1.58 0 0  1.6 0 0  1.62 0 0  1.64 0 0  1.66 0 0  1.68 0 0  1.7 0 0  1.72 0 0  1.74 0 0  1.76 0 0  1.78 0 0  1.8 0 0  1.82 0 0  1.84 0 0  1.86 0 0  1.88 0 0  1.9 0 0  1.92 0 0  1.94 0 0  1.96 0 0  1.98 0 0  2 0 0  0 0.02 0  0.02 0.02 0  0.04 0.02 0  0.06 0.02 0  0.08 0.02 0  0.1 0.02 0  0.12 0.02 0  0.14 0.02 0  0.16 0.02 0  0.18 0.02 0  0.2 0.02 0  0.22 0.02 0  0.24 0.02 0  0.26 0.02 0  0.28 0.02 0  0.3 0.02 0  0.32 0.02 0  0.34 0.02 0  0.36 0.02 0  0.38 0.02 0  0.4 0.02 0  0.42 0.02 0  0.44 0.02 0  0.46 0.02 0  0.48 0.02 0  0.5 0.02 0  0.52 0.02 0  0.54 0.02 0  0.5600000000000001 0.02 0  0.58 0.02 0  0.6 0.02 0  0.62 0.02 0  0.64 0.02 0  0.66 0.02 0  0.68 0.02 0  0.7 0.02 0  0.72 0.02 0  0.74 0.02 0  0.76 0.02 0  0.78 0.02 0  0.8 0.02 0  0.82 0.02 0  0.84 0.02 0  0.86 0.02 0  0.88 0.02 0  0.9 0.02 0  0.92 0.02 0  0.9399999999999999 0.02 0  0.96 0.02 0  0.98 0.02 0  1 0.02 0  1.02 0.02 0  1.04 0.02 0  1.06 0.02 0  1.08 0.02 0  1.1 0.02 0  1.12 0.02 0  1.14 0.02 0  1.16 0.02 0  1.18 0.02 0  1.2 0.02 0  1.22 0.02 0  1.24 0.02 0  1.26 0.02 0  1.28 0.02 0  1.3 0.02 0  1.32 0.02 0  1.34 0.02 0  1.36 0.02 0  1.38 0.02 0  1.4 0.02 0  1.42 0.02 0  1.44 0.02 0  1.46 0.02 0  1.48 0.02 0  1.5 0.02 0  1.52 0.02 0  1.54 0.02 0  1.56 0.02 0  1.58 0.02 0  1.6 0.02 0  1.62 0.02 0  1.64 0.02 0  1.66 0.02 0  1.68 0.02 0  1.7 0.02 0  1.72 0.02 0  1.74 0.02 0  1.76 0.02 0  1.78 0.02 0  1.8 0.02 0  1.82 0.02 0  1.84 0.02 0  1.86 0.02 0  1.88 0.02 0  1.9 0.02 0  1.92 0.02 0  1.94 0.02 0  1.96 0.02 0  1.98 0.02 0  2 0.02 0  0 0.04 0  0.02 0.04 0  0.04 0.04 0  0.06 0.04 0  0.08 0.04 0  0.1 0.04 0  0.12 0.04 0  0.14 0.04 0  0.16 0.04 0  0.18 0.04 0  0.2 0.04 0  0.22 0.04 0  0.24 0.04 0  0.26 0.04 0  0.28 0.04 0  0.3 0.04 0  0.32 0.04 0  0.34 0.04 0  0.36 0.04 0  0.38 0.04 0  0.4 0.04 0  0.42 0.04 0  0.44 0.04 0  0.46 0.04 0  0.48 0.04 0  0.5 0.04 0  0.52 0.04 0  0.54 0.04 0  0.5600000000000001 0.04 0  0.58 0.04 0  0.6 0.04 0  0.62 0.04 0  0.64 0.04 0  0.66 0.04 0  0.68 0.04 0  0.7 0.04 0  0.72 0.04 0  0.74 0.04 0  0.76 0.04 0  0.78 0.04 0  0.8 0.04 0  0.82 0.04 0  0.84 0.04 0  0.86 0.04 0  0.88 0.04 0  0.9 0.04 0  0.92 0.04 0  0.9399999999999999 0.04 0  0.96 0.04 0  0.98 0.04 0  1 0.04 0  1.02 0.04 0  1.04 0.04 0  1.06 0.04 0  1.08 0.04 0  1.1 0.04 0  1.12 0.04 0  1.14 0.04 0  1.16 0.04 0  1.18 0.04 0  1.2 0.04 0  1.22 0.04 0  1.24 0.04 0  1.26 0.04 0  1.28 0.04 0  1.3 0.04 0  1.32 0.04 0  1.34 0.04 0  1.36 0.04 0  1.38 0.04 0  1.4 0.04 0  1.42 0.04 0  1.44 0.04 0  1.46 0.04 0  1.48 0.04 0  1.5 0.04 0  1.52 0.04 0  1.54 0.04 0  1.56 0.04 0  1.58 0.04 0  1.6 0.04 0  1.62 0.04 0  1.64 0.04 0  1.66 0.04 0  1.68 0.04 0  1.7 0.04 0  1.72 0.04 0  1.74 0.04 0  1.76 0.04 0  1.78 0.04 0  1.8 0.04 0  1.82 0.04 0  1.84 0.04 0  1.86 0.04 0  1.88 0.04 0  1.9 0.04 0  1.92 0.04 0  1.94 0.04 0  1.96 0.04 0  1.98 0.04 0  2 0.04 0  0 0.06 0  0.02 0.06 0  0.04 0.06 0  0.06 0.06 0  0.08 0.06 0  0.1 0.06 0  0.12 0.06 0  0.14 0.06 0  0.16 0.06 0  0.18 0.06 0  0.2 0.06 0  0.22 0.06 0  0.24 0.06 0  0.26 0.06 0  0.28 0.06 0  0.3 0.06 0  0.32 0.06 0  0.34 0.06 0  0.36 0.06 0  0.38 0.06 0  0.4 0.06 0  0.42 0.06 0  0.44 0.06 0  0.46 0.06 0  0.48 0.06 0  0.5 0.06 0  0.52 0.06 0  0.54 0.06 0  0.5600000000000001 0.06 0  0.58 0.06 0  0.6 0.06 0  0.62 0.06 0  0.64 0.06 0  0.66 0.06 0  0.68 0.06 0  0.7 0.06 0  0.72 0.06 0  0.74 0.06 0  0.76 0.06 0  0.78 0.06 0  0.8 0.06 0  0.82 0.06 0  0.84 0.06 0  0.86 0.06 0  0.88 0.06 0  0.9 0.06 0  0.92 0.06 0  0.9399999999999999 0.06 0  0.96 0.06 0  0.98 0.06 0  1 0.06 0  1.02 0.06 0  1.04 0.06 0  1.06 0.06 0  1.08 0.06 0  1.1 0.06 0  1.12 0.06 0  1.14 0.06 0  1.16 0.06 0  1.18 0.06 0  1.2 0.06 0  1.22 0.06 0  1.24 0.06 0  1.26 0.06 0  1.28 0.06 0  1.3 0.06 0  1.32 0.06 0  1.34 0.06 0  1.36 0.06 0  1.38 0.06 0  1.4 0.06 0  1.42 0.06 0  1.44 0.06 0  1.46 0.06 0  1.48 0.06 0  1.5 0.06 0  1.52 0.06 0  1.54 0.06 0  1.56 0.06 0  1.58 0.06 0  1.6 0.06 0  1.62 0.06 0  1.64 0.06 0  1.66 0.06 0  1.68 0.06 0  1.7 0.06 0  1.72 0.06 0  1.74 0.06 0  1.76 0.06 0  1.78 0.06 0  1.8 0.06 0  1.82 0.06 0  1.84 0.06 0  1.86 0.06 0  1.88 0.06 0  1.9 0.06 0  1.92 0.06 0  1.94 0.06 0  1.96 0.06 0  1.98 0.06 0  2 0.06 0  0 0.08 0  0.02 0.08 0  0.04 0.08 0  0.06 0.08 0  0.08 0.08 0  0.1 0.08 0  0.12 0.08 0  0.14 0.08 0  0.16 0.08 0  0.18 0.08 0  0.2 0.08 0  0.22 0.08 0  0.24 0.08 0  0.26 0.08 0  0.28 0.08 0  0.3 0.08 0  0.32 0.08 0  0.34 0.08 0  0.36 0.08 0  0.38 0.08 0  0.4 0.08 0  0.42 0.08 0  0.44 0.08 0  0.46 0.08 0  0.48 0.08 0  0.5 0.08 0  0.52 0.08 0  0.54 0.08 0  0.5600000000000001 0.08 0  0.58 0.08 0  0.6 0.08 0  0.62 0.08 0  0.64 0.08 0  0.66 0.08 0  0.68 0.08 0  0.7 0.08 0  0.72 0.08 0  0.74 0.08 0  0.76 0.08 0  0.78 0.08 0  0.8 0.08 0  0.82 0.08 0  0.84 0.08 0  0.86 0.08 0  0.88 0.08 0  0.9 0.08 0  0.92 0.08 0  0.9399999999999999 0.08 0  0.96 0.08 0  0.98 0.08 0  1 0.08 0  1.02 0.08 0  1.04 0.08 0  1.06 0.08 0  1.08 0.08 0  1.1 0.08 0  1.12 0.08 0  1.14 0.08 0  1.16 0.08 0  1.18 0.08 0  1.2 0.08 0  1.22 0.08 0  1.24 0.08 0  1.26 0.08 0  1.28 0.08 0  1.3 0.08 0  1.32 0.08 0  1.34 0.08 0  1.36 0.08 0  1.38 0.08 0  1.4 0.08 0  1.42 0.08 0  1.44 0.08 0  1.46 0.08 0  1.48 0.08 0  1.5 0.08 0  1.52 0.08 0  1.54 0.08 0  1.56 0.08 0  1.58 0.08 0  1.6 0.08 0  1.62 0.08 0  1.64 0.08 0  1.66 0.08 0  1.68 0.08 0  1.7 0.08 0  1.72 0.08 0  1.74 0.08 0  1.76 0.08 0  1.78 0.08 0  1.8 0.08 0  1.82 0.08 0  1.84 0.08 0  1.86 0.08 0  1.88 0.08 0  1.9 0.08 0  1.92 0.08 0  1.94 0.08 0  1.96 0.08 0  1.98 0.08 0  2 0.08 0  0 0.1 0  0.02 0.1 0  0.04 0.1 0  0.06 0.1 0  0.08 0.1 0  0.1 0.1 0  0.12 0.1 0  0.14 0.1 0  0.16 0.1 0  0.18 0.1 0  0.2 0.1 0  0.22 0.1 0  0.24 0.1 0  0.26 0.1 0  0.28 0.1 0  0.3 0.1 0  0.32 0.1 0  0.34 0.1 0  0.36 0.1 0  0.38 0.1 0  0.4 0.1 0  0.42 0.1 0  0.44 0.1 0  0.46 0.1 0  0.48 0.1 0  0.5 0.1 0  0.52 0.1 0  0.54 0.1 0  0.5600000000000001 0.1 0  0.58 0.1 0  0.6 0.1 0  0.62 0.1 0  0.64 0.1 0  0.66 0.1 0  0.68 0.1 0  0.7 0.1 0  0.72 0.1 0  0.74 0.1 0  0.76 0.1 0  0.78 0.1 0  0.8 0.1 0  0.82 0.1 0  0.84 0.1 0  0.86 0.1 0  0.88 0.1 0  0.9 0.1 0  0.92 0.1 0  0.9399999999999999 0.1 0  0.96 0.1 0  0.98 0.1 0  1 0.1 0  1.02 0.1 0  1.04 0.1 0  1.06 0.1 0  1.08 0.1 0  1.1 0.1 0  1.12 0.1 0  1.14 0.1 0  1.16 0.1 0  1.18 0.1 0  1.2 0.1 0  1.22 0.1 0  1.24 0.1 0  1.26 0.1 0  1.28 0.1 0  1.3 0.1 0  1.32 0.1 0  1.34 0.1 0  1.36 0.1 0  1.38 0.1 0  1.4 0.1 0  1.42 0.1 0  1.44 0.1 0  1.46 0.1 0  1.48 0.1 0  1.5 0.1 0  1.52 0.1 0  1.54 0.1 0  1.56 0.1 0  1.58 0.1 0  1.6 0.1 0  1.62 0.1 0  1.64 0.1 0  1.66 0.1 0  1.68 0.1 0  1.7 0.1 0  1.72 0.1 0  1.74 0.1 0  1.76 0.1 0  1.78 0.1 0  1.8 0.1 0  1.82 0.1 0  1.84 0.1 0  1.86 0.1 0  1.88 0.1 0  1.9 0.1 0  1.92 0.1 0  1.94 0.1 0  1.96 0.1 0  1.98 0.1 0  2 0.1 0  0 0.12 0  0.02 0.12 0  0.04 0.12 0  0.06 0.12 0  0.08 0.12 0  0.1 0.12 0  0.12 0.12 0  0.14 0.12 0  0.16 0.12 0  0.18 0.12 0  0.2 0.12 0  0.22 0.12 0  0.24 0.12 0  0.26 0.12 0  0.28 0.12 0  0.3 0.12 0  0.32 0.12 0  0.34 0.12 0  0.36 0.12 0  0.38 0.12 0  0.4 0.12 0  0.42 0.12 0  0.44 0.12 0  0.46 0.12 0  0.48 0.12 0  0.5 0.12 0  0.52 0.12 0  0.54 0.12 0  0.5600000000000001 0.12 0  0.58 0.12 0  0.6 0.12 0  0.62 0.12 0  0.64 0.12 0  0.66 0.12 0  0.68 0.12 0  0.7 0.12 0  0.72 0.12 0  0.74 0.12 0  0.76 0.12 0  0.78 0.12 0  0.8 0.12 0  0.82 0.12 0  0.84 0.12 0  0.86 0.12 0  0.88 0.12 0  0.9 0.12 0  0.92 0.12 0  0.9399999999999999 0.12 0  0.96 0.12 0  0.98 0.12 0  1 0.12 0  1.02 0.12 0  1.04 0.12 0  1.06 0.12 0  1.08 0.12 0  1.1 0.12 0  1.12 0.12 0  1.14 0.12 0  1.16 0.12 0  1.18 0.12 0  1.2 0.12 0  1.22 0.12 0  1.24 0.12 0  1.26 0.12 0  1.28 0.12 0  1.3 0.12 0  1.32 0.12 0  1.34 0.12 0  1.36 0.12 0  1.38 0.12 0  1.4 0.12 0  1.42 0.12 0  1.44 0.12 0  1.46 0.12 0  1.48 0.12 0  1.5 0.12 0  1.52 0.12 0  1.54 0.12 0  1.56 0.12 0  1.58 0.12 0  1.6 0.12 0  1.62 0.12 0  1.64 0.12 0  1.66 0.12 0  1.68 0.12 0  1.7 0.12 0  1.72 0.12 0  1.74 0.12 0  1.76 0.12 0  1.78 0.12 0  1.8 0.12 0  1.82 0.12 0  1.84 0.12 0  1.86 0.12 0  1.88 0.12 0  1.9 0.12 0  1.92 0.12 0  1.94 0.12 0  1.96 0.12 0  1.98 0.12 0  2 0.12 0  0 0.14 0  0.02 0.14 0  0.04 0.14 0  0.06 0.14 0  0.08 0.14 0  0.1 0.14 0  0.12 0.14 0  0.14 0.14 0  0.16 0.14 0  0.18 0.14 0  0.2 0.14 0  0.22 0.14 0  0.24 0.14 0  0.26 0.14 0  0.28 0.14 0  0.3 0.14 0  0.32 0.14 0  0.34 0.14 0  0.36 0.14 0  0.38 0.14 0  0.4 0.14 0  0.42 0.14 0  0.44 0.14 0  0.46 0.14 0  0.48 0.14 0  0.5 0.14 0  0.52 0.14 0  0.54 0.14 0  0.5600000000000001 0.14 0  0.58 0.14 0  0.6 0.14 0  0.62 0.14 0  0.64 0.14 0  0.66 0.14 0  0.68 0.14 0  0.7 0.14 0  0.72 0.14 0  0.74 0.14 0  0.76 0.14 0  0.78 0.14 0  0.8 0.14 0  0.82 0.14 0  0.84 0.14 0  0.86 0.14 0  0.88 0.14 0  0.9 0.14 0  0.92 0.14 0  0.9399999999999999 0.14 0  0.96 0.14 0  0.98 0.14 0  1 0.14 0  1.02 0.14 0  1.04 0.14 0  1.06 0.14 0  1.08 0.14 0  1.1 0.14 0  1.12 0.14 0  1.14 0.14 0  1.16 0.14 0  1.18 0.14 0  1.2 0.14 0  1.22 0.14 0  1.24 0.14 0  1.26 0.14 0  1.28 0.14 0  1.3 0.14 0  1.32 0.14 0  1.34 0.14 0  1.36 0.14 0  1.38 0.14 0  1.4 0.14 0  1.42 0.14 0  1.44 0.14 0  1.46 0.14 0  1.48 0.14 0  1
[...]
<PointData  Scalars="sols[i]"> 
<DataArray  type="Float64"  Name="sols[i]"  format="ascii">1.5335095784334567e-04  1.0222028288846470e-04  1.0222028291003633e-04  1.0222028295421383e-04  1.0222028303901744e-04  1.0222028319766148e-04  1.0222028348997556e-04  1.0222028402194746e-04  1.0222028497867567e-04  1.0222028667920003e-04  1.0222028966685035e-04  1.0222029485745579e-04  1.0222030378308439e-04  1.0222031899717561e-04  1.0222034476009087e-04  1.0222038822419870e-04  1.0222046152063888e-04  1.0222058546624106e-04  1.0222079610982718e-04  1.0222115602749582e-04  1.0222177301043276e-04  1.0222282908862448e-04  1.0222462167487688e-04  1.0222761435251158e-04  1.0223248567493097e-04  1.0224014992416821e-04  1.0225170808303086e-04  1.0226828193664054e-04  1.0229070813693678e-04  1.0231913651708642e-04  1.0235266922856799e-04  1.0238921883827054e-04  1.0242570546804556e-04  1.0245859769639817e-04  1.0248463748486965e-04  1.0250145186093041e-04  1.0250782299465376e-04  1.0250365882907665e-04  1.0248989056578143e-04  1.0246835371869884e-04  1.0244152072498908e-04  1.0241207225480627e-04  1.0238244453190283e-04  1.0235451134920951e-04  1.0232946466742456e-04  1.0230786611112723e-04  1.0228979464090907e-04  1.0227501721354654e-04  1.0226313731884852e-04  1.0225370337117645e-04  1.0224627612804972e-04  1.0224046331390514e-04  1.0223593222597922e-04  1.0223240970254357e-04  1.0222967605940376e-04  1.0222755697641864e-04  1.0222591536865469e-04  1.0222464409662032e-04  1.0222365977819998e-04  1.0222289769873876e-04  1.0222230770878793e-04  1.0222185096861848e-04  1.0222149739715081e-04  1.0222122369126416e-04  1.0222101179594586e-04  1.0222084772404979e-04  1.0222072064401111e-04  1.0222062217249341e-04  1.0222054582463761e-04  1.0222048658651756e-04  1.0222044058302279e-04  1.0222040482043838e-04  1.0222037698739845e-04  1.0222035530116111e-04  1.0222033838874157e-04  1.0222032519457118e-04  1.0222031490817355e-04  1.0222030690698887e-04  1.0222030071093568e-04  1.0222029594650741e-04  1.0222029231902921e-04  1.0222028959208394e-04  1.0222028757308902e-04  1.0222028610380138e-04  1.0222028505429804e-04  1.0222028431904640e-04  1.0222028381393138e-04  1.0222028347353044e-04  1.0222028324834056e-04  1.0222028310195771e-04  1.0222028300835122e-04  1.0222028294939810e-04  1.0222028291278929e-04  1.0222028289035216e-04  1.0222028287676781e-04  1.0222028286864323e-04  1.0222028286385030e-04  1.0222028286108030e-04  1.0222028285955303e-04  1.0222028285883540e-04  3.0680849631669694e-04  1.0222028288628881e-04  5.1100057508675768e-05  5.1100057520236589e-05  5.1100057544497212e-05  5.1100057591576794e-05  5.1100057680384214e-05  5.1100057845291473e-05  5.1100058147679904e-05  5.1100058695535962e-05  5.1100059676182868e-05  5.1100061410252611e-05  5.1100064439926738e-05  5.1100069672940874e-05  5.1100078619252366e-05  5.1100093786599304e-05  5.1100119357955725e-05  5.1100162382146814e-05  5.1100234906213834e-05  5.1100357811767827e-05  5.1100567620464935e-05  5.1100928158410598e-05  5.1101549456369371e-05  5.1102615948347421e-05  5.1104423691808665e-05  5.1107420347777240e-05  5.1112230982353898e-05  5.1119639159501892e-05  5.1130484118588594e-05  5.1145446754077226e-05  5.1164746381836179e-05  5.1187850026471163e-05  5.1213337677857368e-05  5.1239022001705771e-05  5.1262342044387156e-05  5.1280920987540975e-05  5.1293040929751110e-05  5.1297830028561217e-05  5.1295202606833860e-05  5.1285780717818852e-05  5.1270844609839996e-05  5.1252157572337641e-05  5.1231646065749196e-05  5.1211054193543541e-05  5.1191707084143737e-05  5.1174429144887183e-05  5.1159590835051121e-05  5.1147223168992811e-05  5.1137143807397301e-05  5.1129063262340236e-05  5.1122660325043454e-05  5.1117627495136735e-05  5.1113693181153994e-05  5.1110628858818443e-05  5.1108247946027397e-05  5.1106400954362548e-05  5.1104969561126010e-05  5.1103860875820894e-05  5.1103002386712317e-05  5.1102337710743877e-05  5.1101823116342607e-05  5.1101424729633324e-05  5.1101116322384841e-05  5.1100877582494950e-05  5.1100692774014636e-05  5.1100549703931864e-05  5.1100438925868127e-05  5.1100353124642410e-05  5.1100286638839097e-05  5.1100235089489700e-05  5.1100195091143051e-05  5.1100164027381638e-05  5.1100139876872396e-05  5.1100121078937548e-05  5.1100106429818702e-05  5.1100095002530645e-05  5.1100086084628678e-05  5.1100079129440273e-05  5.1100073717429427e-05  5.1100069525382042e-05  5.1100066301958602e-05  5.1100063848757467e-05  5.1100062006294273e-05  5.1100060644259466e-05  5.1100059655213910e-05  5.1100058950701588e-05  5.1100058458765263e-05  5.1100058122058621e-05  5.1100057896054862e-05  5.1100057747164454e-05  5.1100057650785942e-05  5.1100057589411547e-05  5.1100057550914360e-05  5.1100057527101066e-05  5.1100057512559868e-05  5.1100057503787019e-05  5.1100057498556489e-05  5.1100057495478629e-05  5.1100057493700998e-05  5.1100057492714740e-05  5.1100057492232311e-05  1.0222028285883269e-04  1.0222028290054057e-04  5.1100057516926370e-05  5.1100057534575406e-05  5.1100057571973836e-05  5.1100057645328664e-05  5.1100057785343319e-05  5.1100058048547084e-05  5.1100058537154787e-05  5.1100059433109010e-05  5.1100061055320178e-05  5.1100063954238398e-05  5.1100069065829006e-05  5.1100077959974124e-05  5.1100093241193340e-05  5.1100119203497356e-05  5.1100162930139292e-05  5.1100236210737421e-05  5.1100359007787876e-05  5.1100565871119557e-05  5.1100917818008073e-05  5.1101523812180382e-05  5.1102577735458567e-05  5.1104417377889280e-05  5.1107608645400258e-05  5.1113046369885101e-05  5.1122038268639996e-05  5.1136301508268472e-05  5.1157767770569070e-05  5.1188104564776297e-05  5.1227978372647982e-05  5.1276321924289148e-05  5.1329988647125208e-05  5.1384023555254855e-05  5.1432630813676893e-05  5.1470588233849021e-05  5.1494389857478025e-05  5.1502512522987276e-05  5.1495021186275574e-05  5.1473376083742178e-05  5.1440490490099907e-05  5.1400354716253294e-05  5.1357227700905063e-05  5.1314799177112647e-05  5.1275697730912190e-05  5.1241396188856847e-05  5.1212402031845637e-05  5.1188561754448241e-05  5.1169348339378336e-05  5.1154079609112344e-05  5.1142060120902159e-05  5.1132657199498406e-05  5.1125330919933094e-05  5.1119637627934823e-05  5.1115220901926011e-05  5.1111798209981719e-05  5.1109147488347234e-05  5.1107095241307364e-05  5.1105506499156926e-05  5.1104276573024388e-05  5.1103324406976544e-05  5.1102587284829437e-05  5.1102016669667721e-05  5.1101574974249741e-05  5.1101233074042350e-05  5.1100968397589950e-05  5.1100763457305657e-05  5.1100604713094589e-05  5.1100481688941577e-05  5.1100386284502807e-05  5.1100312238905462e-05  5.1100254714227692e-05  5.1100209973145122e-05  5.1100175130263748e-05  5.1100147960580496e-05  5.1100126751680124e-05  5.1100110188913490e-05  5.1100097265115648e-05  5.1100087208603452e-05  5.1100079425269945e-05  5.1100073452370077e-05  5.1100068922786866e-05  5.1100065538979770e-05  5.1100063055505379e-05  5.1100061268352285e-05  5.1100060008836139e-05  5.1100059139835954e-05  5.1100058552697002e-05  5.1100058163894825e-05  5.1100057911254197e-05  5.1100057749940079e-05  5.1100057648579197e-05  5.1100057585815574e-05  5.1100057547468210e-05  5.1100057524325901e-05  5.1100057510519901e-05  5.1100057502376513e-05  5.1100057497633440e-05  5.1100057494920658e-05  5.1100057493429433e-05  5.1100057492707381e-05  1.0222028285953767e-04  1.0222028292692961e-04  5.1100057532623206e-05  5.1100057562129212e-05  5.1100057625236650e-05  5.1100057750503227e-05  5.1100057992729321e-05  5.1100058454223526e-05  5.1100059322582107e-05  5.1100060936269128e-05  5.1100063896017284e-05  5.1100069250046705e-05  5.1100078795751996e-05  5.1100095562646794e-05  5.1100124577780094e-05  5.1100174083035675e-05  5.1100257516582814e-05  5.1100396884717116e-05  5.1100628829804480e-05  5.1101016086099125e-05  5.1101669594780729e-05  5.1102790765031553e-05  5.1104748975447272e-05  5.1108214070924167e-05  5.1114360719880600e-05  5.1125138455763750e-05  5.1143541674053655e-05  5.1173709670597711e-05  5.1220565065788581e-05  5.1288669075495380e-05  5.1380248823815907e-05  5.1493131946003917e-05  5.1619728453257765e-05  5.1747592184376979e-05  5.1861959204405463e-05  5.1949792950798271e-05  5.2003006028942858e-05  5.2018749258201248e-05  5.1997591540683662e-05  5.1943093374408995e-05  5.1862619667951540e-05  5.1766348962771404e-05  5.1664896916280259e-05  5.1567012978560829e-05  5.1478489390170584e-05  5.1402168026598244e-05  5.1338628024819014e-05  5.1287045252013371e-05  5.1245898257279229e-05  5.1213454401870405e-05  5.1188059637176760e-05  5.1168272004835480e-05  5.1152896298897705e-05  5.1140969795027000e-05  5.1131729215741538e-05  5.1124574553794875e-05  5.1119036759259221e-05  5.1114750777925722e-05  5.1111433427746092e-05  5.1108865524133361e-05  5.1106877622837706e-05  5.1105338738379366e-05  5.1104147531150440e-05  5.1103225515898424e-05  5.1102511862620323e-05  5.1101959419193476e-05  5.1101531654687693e-05  5.1101200291154021e-05  5.1100943457609111e-05  5.1100744248699340e-05  5.1100589601257528e-05  5.1100469422136330e-05  5.1100375914318007e-05  5.1100303058134206e-05  5.1100246212466968e-05  5.1100201807449327e-05  5.1100167105660928e-05  5.1100140013679506e-05  5.1100118930650723e-05  5.1100102625324643e-05  5.1100090137210205e-05  5.1100080700251977e-05  5.1100073688125502e-05  5.1100068579025537e-05  5.1100064935754224e-05  5.1100062395483740e-05  5.1100060663731927e-05  5.1100059508669811e-05  5.1100058753975706e-05  5.1100058270182931e-05  5.1100057965387016e-05  5.1100057776348561e-05  5.1100057660750261e-05  5.1100057590961428e-05  5.1100057549322196e-05  5.1100057524751627e-05  5.1100057510410383e-05  5.1100057502141119e-05  5.1100057497456322e-05  5.1100057494903053e-05  5.1100057493676211e-05  1.0222028286103449e-04  1.0222028297202489e-04  5.1100057559802311e-05  5.1100057610344943e-05  5.1100057719503529e-05  5.1100057938755161e-05  5.1100058368196041e-05  5.1100059197370213e-05  5.1100060778912931e-05  5.1100063758300121e-05  5.1100069297244777e-05  5.1100079449152656e-05  5.1100097774454530e-05  5.1100130324425265e-05  5.1100187181560936e-05  5.1100284845814059e-05  5.1100449967578831e-05  5.1100725430136367e-05  5.1101180990441490e-05  5.1101933428029922e-05  5.1103186830981311e-05  5.1105314066410837e-05  5.1109016612012982e-05  5.1115618462150390e-05  5.1127556658639634e-05  5.1149093473977224e-05  5.1187141758356867e-05  5.1251817880693158e-05  5.1355932732241811e-05  5.1512340933706767e-05  5.1728562514718782e-05  5.2000759047278445e-05  5.2310604692599316e-05  5.2625931772563300e-05  5.2907186125660362e-05  5.3119715321734345e-05  5.3243896427882396e-05  5.3274918268786563e-05  5.3214877271407071e-05  5.3072269150861344e-05  5.2866920091084545e-05  5.2626511332012153e-05  5.2378873587415818e-05  5.2145350124365897e-05  5.1938700194344511e-05  5.1763958104935733e-05  5.1620841966844508e-05  5.1506193809190462e-05  5.1415681889298845e-05  5.1344853663947665e-05  5.1289706857531359e-05  5.1246890601938744e-05  5.1213701531759739e-05  5.1188000726688361e-05  5.1168111626444642e-05  5.1152725216158448e-05  5.1140822730541695e-05  5.1131614068980393e-05  5.1124488003421697e-05  5.1118972417176696e-05  5.1114702899737613e-05  5.1111397997481969e-05  5.1108840001872421e-05  5.1106860273237732e-05  5.1105328072378339e-05  5.1104142044920846e-05  5.1103223680038333e-05  5.1102512227775860e-05  5.1101960723988330e-05  5.1101532881673735e-05  5.1101200667616405e-05  5.1100942423355374e-05  5.1100741416501390e-05  5.1100584728093875e-05  5.1100462399122879e-05  5.1100366773937063e-05  5.1100291989865590e-05  5.1100233572782530e-05  5.1100188109199992e-05  5.1100152976946481e-05  5.1100126126845847e-05  5.1100105914443796e-05  5.1100090981875525e-05  5.1100080185747238e-05  5.1100072560505586e-05  5.1100067302668249e-05  5.1100063762073795e-05  5.1100061431039992e-05  5.1100059928095115e-05  5.1100058977272483e-05  5.1100058385872263e-05  5.1100058023546480e-05  5.1100057804540230e-05  5.1100057673766366e-05  5.1100057596549758e-05  5.1100057551438369e-05  5.1100057525360813e-05  5.1100057510463685e-05  5.1100057502098523e-05  5.1100057497575232e-05  5.1100057495414620e-05  1.0222028286373608e-04  1.0222028304605681e-04  5.1100057604886730e-05  5.1100057691284606e-05  5.1100057879756322e-05  5.1100058262784322e-05  5.1100059022667757e-05  5.1100060509691274e-05  5.1100063385504875e-05  5.1100068880067471e-05  5.1100079241413367e-05  5.1100098503039691e-05  5.1100133756761806e-05  5.1100197200605003e-05  5.1100309333341028e-05  5.1100503806842540e-05  5.1100834709028874e-05  5.1101387722843995e-05  5.1102298485753813e-05  5.1103786407988522e-05  5.1106223835130059e-05  5.1110284565649395e-05  5.1117258595482110e-05  5.1129680786068338e-05  5.1152474487111657e-05  5.1194780024480958e-05  5.1272377559297838e-05  5.1409947468301497e-05  5.1641202803816454e-05  5.2003486234135566e-05  5.2523222254227675e-05  5.3197873309090136e-05  5.3985769137449225e-05  5.4802493049026704e-05  5.5534732199751121e-05  5.6080614894224342e-05  5.6387287917634979e-05  5.6449077261636841e-05  5.6271570069529414e-05  5.5874365780822122e-05  5.5317842382053800e-05  5.4685299287504497e-05  5.4054656055277942e-05  5.3478671465239427e-05  5.2983758729468472e-05  5.2575704290495326e-05  5.2248276578670724e-05  5.1990182283762759e-05  5.1788900118170754e-05  5.1632753887157897e-05  5.1511900727408365e-05  5.1418451984311050e-05  5.1346220687579721e-05  5.1290401365307979e-05  5.1247271389512174e-05  5.1213943955686389e-05  5.1188183444603121e-05  5.1168263804697063e-05  5.1152854379994745e-05  5.1140930045364197e-05  5.1131701178049890e-05  5.1124558606075533e-05  5.1119031251464086e-05  5.1114754179448302e-05  5.1111444432445468e-05  5.1108882665314590e-05  5.1106899043331123e-05  5.1105362236090047e-05  5.1104170778325391e-05  5.1103246309440944e-05  5.1102528307097505e-05  5.1101970012076126e-05  5.1101535295739860e-05  5.1101196260413178e-05  5.1100931402970126e-05  5.1100724204873908e-05  5.1100562036099364e-05  5.1100435282285268e-05  5.1100336629233815e-05  5.1100260466982220e-05  5.1100202401850172e-05  5.1100158881271538e-05  5.1100126937278663e-05  5.1100104040772127e-05  5.1100088039151946e-05  5.1100077138337583e-05  5.1100069893698504e-05  5.1100065188762966e-05  5.1100062196491849e-05  5.1100060328514084e-05  5.1100059181288717e-05  5.1100058486741067e-05  5.1100058071557541e-05  5.1100057826203998e-05  5.1100057682750105e-05  5.1100057599729492e-05  5.1100057552177198e-05  5.1100057525255483e-05  5.1100057510268217e-05  5.1100057502226568e-05  5.1100057498405880e-05  1.0222028286837893e-04  1.0222028316436864e-04  5.1100057677644299e-05  5.1100057823573480e-05  5.1100058145162142e-05  5.1100058806482777e-05  5.1100060135517858e-05  5.1100062772073057e-05  5.1100067944040173e-05  5.1100077971900782e-05  5.1100097168950642e-05  5.1100133406542292e-05  5.1100200756021177e-05  5.1100323798914502e-05  5.1100544394812279e-05  5.1100931883800278e-05  5.1101597908670651e-05  5.1102717608345427e-05  5.1104561155106287e-05  5.1107547164026595e-05  5.1112350929548043e-05  5.1120152053543136e-05  5.1133211734415658e-05  5.1156148258396333e-05  5.1198500440844750e-05  5.1279275385091502e-05  5.1433815294288251e-05  5.1722021877204208e-05  5.2233973696151661e-05  5.3083698324693068e-05  5.4372620862945217e-05  5.6135347856811922e-05  5.8304303668175284e-05  6.0662321906926160e-05  6.2840156695912337e-05  6.4464933567774611e-05  6.5345934183823700e-05  6.5484843736646209e-05  6.4887245366312816e-05  6.3595705313573080e-05  6.1853995723584767e-05  5.9975985209306248e-05  5.8209802177372363e-05  5.6682101766451681e-05  5.5430775321736950e-05  5.4438735118969261e-05  5.3666634672659829e-05  5.3072181033988794e-05  5.2616637607498347e-05  5.2267570051135222e-05  5.1999709737720310e-05  5.1793858097881525e-05  5.1635459331284830e-05  5.1513467642228658e-05  5.1419459577105989e-05  5.1346964218493412e-05  5.1291009788311906e-05  5.1247786857879749e-05  5.1214374759392763e-05  5.1188532652702570e-05  5.1168540444081260e-05  5.1153073699776482e-05  5.1141108920603267e-05  5.1131853514386387e-05  5.1124693109268310e-05  5.1119151690482952e-05  5.1114861033031697e-05  5.1111536690364451e-05  5.1108959087829757e-05  5.1106958751995568e-05  5.1105404824852032e-05  5.1104196204124268e-05  5.1103254760466671e-05  5.1102520156143784e-05  5.1101945889678213e-05  5.1101496267164350e-05  5.1101144048690345e-05  5.1100868563152453e-05  5.1100654141631509e-05  5.1100488789887453e-05  5.1100363088165066e-05  5.1100269348076580e-05  5.1100201055395215e-05  5.1100152584367161e-05  5.1100119109523387e-05  5.1100096608935690e-05  5.1100081867448715e-05  5.1100072432235796e-05  5.1100066516649307e-05  5.1100062873531246e-05  5.1100060664177995e-05  5.1100059342057346e-05  5.1100058560137325e-05  5.1100058102640966e-05  5.1100057837668447e-05  5.1100057685722188e-05  5.1100057599475803e-05  5.1100057551084539e-05  5.1100057524380315e-05  5.1100057510164879e-05  5.1100057503447203e-05  1.0222028287617795e-04  1.0222028334913773e-04  5.1100057792376606e-05  5.1100058034905083e-05  5.1100058574890674e-05  5.1100059698616651e-05  5.1100061986625802e-05  5.1100066589144418e-05  5.1100075750439282e-05  5.1100093786072070e-05  5.1100128864337639e-05  5.1100196172734356e-05  5.1100323382057943e-05  5.1100559749025378e-05  5.1100990654678538e-05  5.1101759687920966e-05  5.1103100304571386e-05  5.1105378632812365e-05  5.1109149633131909e-05  5.1115236727375347e-05  5.1124877972133235e-05  5.1140080722103266e-05  5.1164566457290552e-05  5.1206165138007609e-05  5.1282265237139856e-05  5.1430695882660185e-05  5.1728502486226338e-05  5.2319984486186012e-05  5.3451420155329433e-05  5.5500292188566698e-05  5.8920306102260318e-05  6.4116632819404104e-05  7.1370486659790635e-05  8.0458754099561191e-05  8.9987726816011650e-05  9.7627279259704153e-05  1.0178024620478165e-04  1.0238627286749056e-04  9.9293936732346096e-05  9.2632925147989159e-05  8.4364817989920476e-05  7.6548439105319718e-05  7.0167517703652633e-05  6.5279167936709186e-05  6.1651078934235162e-05  5.8985140942828811e-05  5.7024123163101437e-05  5.5577042655051285e-05  5.4502132266123822e-05  5.3696265394930948e-05  5.3087517183414369e-05  5.2625139911389757e-05  5.2272473758529914e-05  5.2002704461321818e-05  5.1795927637714217e-05  5.1637114254451732e-05  5.1514897845997550e-05  5.1420696984027099e-05  5.1347996621539915e-05  5.1291835370381085e-05  5.1248430037040409e-05  5.1214878695776420e-05  5.1188942987971846e-05  5.1168892430853252e-05  5.1153387420839079e-05  5.1141391491441523e-05  5.1132104386838282e-05  5.1124908986924217e-05  5.1119329504122253e-05  5.1114999030111105e-05  5.1111634371825949e-05  5.1109016734084768e-05  5.1106977016689484e-05  5.1105384613111195e-05  5.1104138882856716e-05  5.1103162647889692e-05  5.1102397145381644e-05  5.1101797957419702e-05  5.1101331570174865e-05  5.1100972395569117e-05  5.1100700266955447e-05  5.1100498528005019e-05  5.1100352823880919e-05  5.1100250570631608e-05  5.1100180895806860e-05  5.1100134755911056e-05  5.1100104994526510e-05  5.1100086239169758e-05  5.1100074653116136e-05  5.1100067615030866e-05  5.1100063399606212e-05  5.1100060905190310e-05  5.1100059444987624e-05  5.1100058598753178e-05  5.1100058113107786e-05  5.1100057837131970e-05  5.1100057681908724e-05  5.1100057595615501e-05  5.1100057548427905e-05  5.1100057523517154e-05  5.1100057511812528e-05  1.0222028288906556e-04  1.0222028363124488e-04  5.1100057969260531e-05  5.1100058364963289e-05  5.1100059255116976e-05  5.1100061129798389e-05  5.1100064997347398e-05  5.1100072887486447e-05  5.1100088828363470e-05  5.1100120706907355e-05  5.1100183738807530e-05  5.1100306788920963e-05  5.1100543562361837e-05  5.1100991749646309e-05  5.1101824413089035e-05  5.1103338744444782e-05  5.1106026727678456e-05  5.1110668683120421e-05  5.1118443850440730e-05  5.1131049170721675e-05  5.1150849236447464e-05  5.1181236973098462e-05  5.12278703326