<?xml version="1.0"?>
<VTKFile type="UnstructuredGrid"  version="0.1"  >
<UnstructuredGrid>
<Piece  NumberOfPoints="5151" NumberOfCells="10000">
<Points>
<DataArray  type="Float64"  NumberOfComponents="3"  format="ascii">0 0 0  0.02 0 0  0.04 0 0  0.06 0 0  0.08 0 0  0.1 0 0  0.12 0 0  0.14 0 0  0.16 0 0  0.18 0 0  0.2 0 0  0.22 0 0  0.24 0 0  0.26 0 0  0.28 0 0  0.3 0 0  0.32 0 0  0.34 0 0  0.36 0 0  0.38 0 0  0.4 0 0  0.42 0 0  0.44 0 0  0.46 0 0  0.48 0 0  0.5 0 0  0.52 0 0  0.54 0 0  0.5600000000000001 0 0  0.58 0 0  0.6 0 0  0.62 0 0  0.64 0 0  0.66 0 0  0.68 0 0  0.7 0 0  0.72 0 0  0.74 0 0  0.76 0 0  0.78 0 0  0.8 0 0  0.82 0 0  0.84 0 0  0.86 0 0  0.88 0 0  0.9 0 0  0.92 0 0  0.9399999999999999 0 0  0.96 0 0  0.98 0 0  1 0 0  1.02 0 0  1.04 0 0  1.06 0 0  1.08 0 0  1.1 0 0  1.12 0 0  1.14 0 0  1.16 0 0  1.18 0 0  1.2 0 0  1.22 0 0  1.24 0 0  1.26 0 0  1.28 0 0  1.3 0 0  1.32 0 0  1.34 0 0  1.36 0 0  1.38 0 0  1.4 0 0  1.42 0 0  1.44 0 0  1.46 0 0  1.48 0 0  1.5 0 0  1.52 0 0  1.54 0 0  1.56 0 0  1.58 0 0  1.6 0 0  1.62 0 0  1.64 0 0  1.66 0 0  1.68 0 0  1.7 0 0  1.72 0 0  1.74 0 0  1.76 0 0  1.78 0 0  1.8 0 0  1.82 0 0  1.84 0 0  1.86 0 0  1.88 0 0  1.9 0 0  1.92 0 0  1.94 0 0  1.96 0 0  1.98 0 0  2 0 0  0 0.02 0  0.02 0.02 0  0.04 0.02 0  0.06 0.02 0  0.08 0.02 0  0.1 0.02 0  0.12 0.02 0  0.14 0.02 0  0.16 0.02 0  0.18 0.02 0  0.2 0.02 0  0.22 0.02 0  0.24 0.02 0  0.26 0.02 0  0.28 0.02 0  0.3 0.02 0  0.32 0.02 0  0.34 0.02 0  0.36 0.02 0  0.38 0.02 0  0.4 0.02 0  0.42 0.02 0  0.44 0.02 0  0.46 0.02 0  0.48 0.02 0  0.5 0.02 0  0.52 0.02 0  0.54 0.02 0  0.5600000000000001 0.02 0  0.58 0.02 0  0.6 0.02 0  0.62 0.02 0  0.64 0.02 0  0.66 0.02 0  0.68 0.02 0  0.7 0.02 0  0.72 0.02 0  0.74 0.02 0  0.76 0.02 0  0.78 0.02 0  0.8 0.02 0  0.82 0.02 0  0.84 0.02 0  0.86 0.02 0  0.88 0.02 0  0.9 0.02 0  0.92 0.02 0  0.9399999999999999 0.02 0  0.96 0.02 0  0.98 0.02 0  1 0.02 0  1.02 0.02 0  1.04 0.02 0  1.06 0.02 0  1.08 0.02 0  1.1 0.02 0  1.12 0.02 0  1.14 0.02 0  1.16 0.02 0  1.18 0.02 0  1.2 0.02 0  1.22 0.02 0  1.24 0.02 0  1.26 0.02 0  1.28 0.02 0  1.3 0.02 0  1.32 0.02 0  1.34 0.02 0  1.36 0.02 0  1.38 0.02 0  1.4 0.02 0  1.42 0.02 0  1.44 0.02 0  1.46 0.02 0  1.48 0.02 0  1.5 0.02 0  1.52 0.02 0  1.54 0.02 0  1.56 0.02 0  1.58 0.02 0  1.6 0.02 0  1.62 0.02 0  1.64 0.02 0  1.66 0.02 0  1.68 0.02 0  1.7 0.02 0  1.72 0.02 0  1.74 0.02 0  1.76 0.02 0  1.78 0.02 0  1.8 0.02 0  1.82 0.02 0  1.84 0.02 0  1.86 0.02 0  1.88 0.02 0  1.9 0.02 0  1.92 0.02 0  1.94 0.02 0  1.96 0.02 0  1.98 0.02 0  2 0.02 0  0 0.04 0  0.02 0.04 0  0.04 0.04 0  0.06 0.04 0  0.08 0.04 0  0.1 0.04 0  0.12 0.04 0  0.14 0.04 0  0.16 0.04 0  0.18 0.04 0  0.2 0.04 0  0.22 0.04 0  0.24 0.04 0  0.26 0.04 0  0.28 0.04 0  0.3 0.04 0  0.32 0.04 0  0.34 0.04 0  0.36 0.04 0  0.38 0.04 0  0.4 0.04 0  0.42 0.04 0  0.44 0.04 0  0.46 0.04 0  0.48 0.04 0  0.5 0.04 0  0.52 0.04 0  0.54 0.04 0  0.5600000000000001 0.04 0  0.58 0.04 0  0.6 0.04 0  0.62 0.04 0  0.64 0.04 0  0.66 0.04 0  0.68 0.04 0  0.7 0.04 0  0.72 0.04 0  0.74 0.04 0  0.76 0.04 0  0.78 0.04 0  0.8 0.04 0  0.82 0.04 0  0.84 0.04 0  0.86 0.04 0  0.88 0.04 0  0.9 0.04 0  0.92 0.04 0  0.9399999999999999 0.04 0  0.96 0.04 0  0.98 0.04 0  1 0.04 0  1.02 0.04 0  1.04 0.04 0  1.06 0.04 0  1.08 0.04 0  1.1 0.04 0  1.12 0.04 0  1.14 0.04 0  1.16 0.04 0  1.18 0.04 0  1.2 0.04 0  1.22 0.04 0  1.24 0.04 0  1.26 0.04 0  1.28 0.04 0  1.3 0.04 0  1.32 0.04 0  1.34 0.04 0  1.36 0.04 0  1.38 0.04 0  1.4 0.04 0  1.42 0.04 0  1.44 0.04 0  1.46 0.04 0  1.48 0.04 0  1.5 0.04 0  1.52 0.04 0  1.54 0.04 0  1.56 0.04 0  1.58 0.04 0  1.6 0.04 0  1.62 0.04 0  1.64 0.04 0  1.66 0.04 0  1.68 0.04 0  1.7 0.04 0  1.72 0.04 0  1.74 0.04 0  1.76 0.04 0  1.78 0.04 0  1.8 0.04 0  1.82 0.04 0  1.84 0.04 0  1.86 0.04 0  1.88 0.04 0  1.9 0.04 0  1.92 0.04 0  1.94 0.04 0  1.96 0.04 0  1.98 0.04 0  2 0.04 0  0 0.06 0  0.02 0.06 0  0.04 0.06 0  0.06 0.06 0  0.08 0.06 0  0.1 0.06 0  0.12 0.06 0  0.14 0.06 0  0.16 0.06 0  0.18 0.06 0  0.2 0.06 0  0.22 0.06 0  0.24 0.06 0  0.26 0.06 0  0.28 0.06 0  0.3 0.06 0  0.32 0.06 0  0.34 0.06 0  0.36 0.06 0  0.38 0.06 0  0.4 0.06 0  0.42 0.06 0  0.44 0.06 0  0.46 0.06 0  0.48 0.06 0  0.5 0.06 0  0.52 0.06 0  0.54 0.06 0  0.5600000000000001 0.06 0  0.58 0.06 0  0.6 0.06 0  0.62 0.06 0  0.64 0.06 0  0.66 0.06 0  0.68 0.06 0  0.7 0.06 0  0.72 0.06 0  0.74 0.06 0  0.76 0.06 0  0.78 0.06 0  0.8 0.06 0  0.82 0.06 0  0.84 0.06 0  0.86 0.06 0  0.88 0.06 0  0.9 0.06 0  0.92 0.06 0  0.9399999999999999 0.06 0  0.96 0.06 0  0.98 0.06 0  1 0.06 0  1.02 0.06 0  1.04 0.06 0  1.06 0.06 0  1.08 0.06 0  1.1 0.06 0  1.12 0.06 0  1.14 0.06 0  1.16 0.06 0  1.18 0.06 0  1.2 0.06 0  1.22 0.06 0  1.24 0.06 0  1.26 0.06 0  1.28 0.06 0  1.3 0.06 0  1.32 0.06 0  1.34 0.06 0  1.36 0.06 0  1.38 0.06 0  1.4 0.06 0  1.42 0.06 0  1.44 0.06 0  1.46 0.06 0  1.48 0.06 0  1.5 0.06 0  1.52 0.06 0  1.54 0.06 0  1.56 0.06 0  1.58 0.06 0  1.6 0.06 0  1.62 0.06 0  1.64 0.06 0  1.66 0.06 0  1.68 0.06 0  1.7 0.06 0  1.72 0.06 0  1.74 0.06 0  1.76 0.06 0  1.78 0.06 0  1.8 0.06 0  1.82 0.06 0  1.84 0.06 0  1.86 0.06 0  1.88 0.06 0  1.9 0.06 0  1.92 0.06 0  1.94 0.06 0  1.96 0.06 0  1.98 0.06 0  2 0.06 0  0 0.08 0  0.02 0.08 0  0.04 0.08 0  0.06 0.08 0  0.08 0.08 0  0.1 0.08 0  0.12 0.08 0  0.14 0.08 0  0.16 0.08 0  0.18 0.08 0  0.2 0.08 0  0.22 0.08 0  0.24 0.08 0  0.26 0.08 0  0.28 0.08 0  0.3 0.08 0  0.32 0.08 0  0.34 0.08 0  0.36 0.08 0  0.38 0.08 0  0.4 0.08 0  0.42 0.08 0  0.44 0.08 0  0.46 0.08 0  0.48 0.08 0  0.5 0.08 0  0.52 0.08 0  0.54 0.08 0  0.5600000000000001 0.08 0  0.58 0.08 0  0.6 0.08 0  0.62 0.08 0  0.64 0.08 0  0.66 0.08 0  0.68 0.08 0  0.7 0.08 0  0.72 0.08 0  0.74 0.08 0  0.76 0.08 0  0.78 0.08 0  0.8 0.08 0  0.82 0.08 0  0.84 0.08 0  0.86 0.08 0  0.88 0.08 0  0.9 0.08 0  0.92 0.08 0  0.9399999999999999 0.08 0  0.96 0.08 0  0.98 0.08 0  1 0.08 0  1.02 0.08 0  1.04 0.08 0  1.06 0.08 0  1.08 0.08 0  1.1 0.08 0  1.12 0.08 0  1.14 0.08 0  1.16 0.08 0  1.18 0.08 0  1.2 0.08 0  1.22 0.08 0  1.24 0.08 0  1.26 0.08 0  1.28 0.08 0  1.3 0.08 0  1.32 0.08 0  1.34 0.08 0  1.36 0.08 0  1.38 0.08 0  1.4 0.08 0  1.42 0.08 0  1.44 0.08 0  1.46 0.08 0  1.48 0.08 0  1.5 0.08 0  1.52 0.08 0  1.54 0.08 0  1.56 0.08 0  1.58 0.08 0  1.6 0.08 0  1.62 0.08 0  1.64 0.08 0  1.66 0.08 0  1.68 0.08 0  1.7 0.08 0  1.72 0.08 0  1.74 0.08 0  1.76 0.08 0  1.78 0.08 0  1.8 0.08 0  1.82 0.08 0  1.84 0.08 0  1.86 0.08 0  1.88 0.08 0  1.9 0.08 0  1.92 0.08 0  1.94 0.08 0  1.96 0.08 0  1.98 0.08 0  2 0.08 0  0 0.1 0  0.02 0.1 0  0.04 0.1 0  0.06 0.1 0  0.08 0.1 0  0.1 0.1 0  0.12 0.1 0  0.14 0.1 0  0.16 0.1 0  0.18 0.1 0  0.2 0.1 0  0.22 0.1 0  0.24 0.1 0  0.26 0.1 0  0.28 0.1 0  0.3 0.1 0  0.32 0.1 0  0.34 0.1 0  0.36 0.1 0  0.38 0.1 0  0.4 0.1 0  0.42 0.1 0  0.44 0.1 0  0.46 0.1 0  0.48 0.1 0  0.5 0.1 0  0.52 0.1 0  0.54 0.1 0  0.5600000000000001 0.1 0  0.58 0.1 0  0.6 0.1 0  0.62 0.1 0  0.64 0.1 0  0.66 0.1 0  0.68 0.1 0  0.7 0.1 0  0.72 0.1 0  0.74 0.1 0  0.76 0.1 0  0.78 0.1 0  0.8 0.1 0  0.82 0.1 0  0.84 0.1 0  0.86 0.1 0  0.88 0.1 0  0.9 0.1 0  0.92 0.1 0  0.9399999999999999 0.1 0  0.96 0.1 0  0.98 0.1 0  1 0.1 0  1.02 0.1 0  1.04 0.1 0  1.06 0.1 0  1.08 0.1 0  1.1 0.1 0  1.12 0.1 0  1.14 0.1 0  1.16 0.1 0  1.18 0.1 0  1.2 0.1 0  1.22 0.1 0  1.24 0.1 0  1.26 0.1 0  1.28 0.1 0  1.3 0.1 0  1.32 0.1 0  1.34 0.1 0  1.36 0.1 0  1.38 0.1 0  1.4 0.1 0  1.42 0.1 0  1.44 0.1 0  1.46 0.1 0  1.48 0.1 0  1.5 0.1 0  1.52 0.1 0  1.54 0.1 0  1.56 0.1 0  1.58 0.1 0  1.6 0.1 0  1.62 0.1 0  1.64 0.1 0  1.66 0.1 0  1.68 0.1 0  1.7 0.1 0  1.72 0.1 0  1.74 0.1 0  1.76 0.1 0  1.78 0.1 0  1.8 0.1 0  1.82 0.1 0  1.84 0.1 0  1.86 0.1 0  1.88 0.1 0  1.9 0.1 0  1.92 0.1 0  1.94 0.1 0  1.96 0.1 0  1.98 0.1 0  2 0.1 0  0 0.12 0  0.02 0.12 0  0.04 0.12 0  0.06 0.12 0  0.08 0.12 0  0.1 0.12 0  0.12 0.12 0  0.14 0.12 0  0.16 0.12 0  0.18 0.12 0  0.2 0.12 0  0.22 0.12 0  0.24 0.12 0  0.26 0.12 0  0.28 0.12 0  0.3 0.12 0  0.32 0.12 0  0.34 0.12 0  0.36 0.12 0  0.38 0.12 0  0.4 0.12 0  0.42 0.12 0  0.44 0.12 0  0.46 0.12 0  0.48 0.12 0  0.5 0.12 0  0.52 0.12 0  0.54 0.12 0  0.5600000000000001 0.12 0  0.58 0.12 0  0.6 0.12 0  0.62 0.12 0  0.64 0.12 0  0.66 0.12 0  0.68 0.12 0  0.7 0.12 0  0.72 0.12 0  0.74 0.12 0  0.76 0.12 0  0.78 0.12 0  0.8 0.12 0  0.82 0.12 0  0.84 0.12 0  0.86 0.12 0  0.88 0.12 0  0.9 0.12 0  0.92 0.12 0  0.9399999999999999 0.12 0  0.96 0.12 0  0.98 0.12 0  1 0.12 0  1.02 0.12 0  1.04 0.12 0  1.06 0.12 0  1.08 0.12 0  1.1 0.12 0  1.12 0.12 0  1.14 0.12 0  1.16 0.12 0  1.18 0.12 0  1.2 0.12 0  1.22 0.12 0  1.24 0.12 0  1.26 0.12 0  1.28 0.12 0  1.3 0.12 0  1.32 0.12 0  1.34 0.12 0  1.36 0.12 0  1.38 0.12 0  1.4 0.12 0  1.42 0.12 0  1.44 0.12 0  1.46 0.12 0  1.48 0.12 0  1.5 0.12 0  1.52 0.12 0  1.54 0.12 0  1.56 0.12 0  1.58 0.12 0  1.6 0.12 0  1.62 0.12 0  1.64 0.12 0  1.66 0.12 0  1.68 0.12 0  1.7 0.12 0  1.72 0.12 0  1.74 0.12 0  1.76 0.12 0  1.78 0.12 0  1.8 0.12 0  1.82 0.12 0  1.84 0.12 0  1.86 0.12 0  1.88 0.12 0  1.9 0.12 0  1.92 0.12 0  1.94 0.12 0  1.96 0.12 0  1.98 0.12 0  2 0.12 0  0 0.14 0  0.02 0.14 0  0.04 0.14 0  0.06 0.14 0  0.08 0.14 0  0.1 0.14 0  0.12 0.14 0  0.14 0.14 0  0.16 0.14 0  0.18 0.14 0  0.2 0.14 0  0.22 0.14 0  0.24 0.14 0  0.26 0.14 0  0.28 0.14 0  0.3 0.14 0  0.32 0.14 0  0.34 0.14 0  0.36 0.14 0  0.38 0.14 0  0.4 0.14 0  0.42 0.14 0  0.44 0.14 0  0.46 0.14 0  0.48 0.14 0  0.5 0.14 0  0.52 0.14 0  0.54 0.14 0  0.5600000000000001 0.14 0  0.58 0.14 0  0.6 0.14 0  0.62 0.14 0  0.64 0.14 0  0.66 0.14 0  0.68 0.14 0  0.7 0.14 0  0.72 0.14 0  0.74 0.14 0  0.76 0.14 0  0.78 0.14 0  0.8 0.14 0  0.82 0.14 0  0.84 0.14 0  0.86 0.14 0  0.88 0.14 0  0.9 0.14 0  0.92 0.14 0  0.9399999999999999 0.14 0  0.96 0.14 0  0.98 0.14 0  1 0.14 0  1.02 0.14 0  1.04 0.14 0  1.06 0.14 0  1.08 0.14 0  1.1 0.14 0  1.12 0.14 0  1.14 0.14 0  1.16 0.14 0  1.18 0.14 0  1.2 0.14 0  1.22 0.14 0  1.24 0.14 0  1.26 0.14 0  1.28 0.14 0  1.3 0.14 0  1.32 0.14 0  1.34 0.14 0  1.36 0.14 0  1.38 0.14 0  1.4 0.14 0  1.42 0.14 0  1.44 0.14 0  1.46 0.14 0  1.48 0.14 0  1
[...]
<PointData  Scalars="sols[i]"> 
<DataArray  type="Float64"  Name="sols[i]"  format="ascii">8.3265181649610001e-04  5.5525183733381306e-04  5.5525183745143186e-04  5.5525183769230342e-04  5.5525183815467434e-04  5.5525183901962622e-04  5.5525184061334118e-04  5.5525184351364889e-04  5.5525184872968493e-04  5.5525185800085048e-04  5.5525187428947652e-04  5.5525190258909481e-04  5.5525195125390419e-04  5.5525203420893387e-04  5.5525217469067035e-04  5.5525241171431520e-04  5.5525281146286967e-04  5.5525348751967146e-04  5.5525463659862042e-04  5.5525660019345858e-04  5.5525996657252536e-04  5.5526572918323212e-04  5.5527551121275207e-04  5.5529184281644605e-04  5.5531842759874391e-04  5.5536025628111316e-04  5.5542333989229171e-04  5.5551380564478970e-04  5.5563622896308209e-04  5.5579144270504800e-04  5.5597456745080692e-04  5.5617423286451824e-04  5.5637364375886531e-04  5.5655351845910073e-04  5.5669603586382902e-04  5.5678817925697028e-04  5.5682323247938147e-04  5.5680064515483080e-04  5.5672548342471301e-04  5.5660777572197546e-04  5.5646104533011484e-04  5.5629996236454635e-04  5.5613786560197492e-04  5.5598502100369222e-04  5.5584796648262130e-04  5.5572979096212244e-04  5.5563093953443603e-04  5.5555014461725007e-04  5.5548523664780279e-04  5.5543373721308575e-04  5.5539323072892745e-04  5.5536155798568574e-04  5.5533688858487400e-04  5.5531772238002575e-04  5.5530285599059051e-04  5.5529133695846771e-04  5.5528241764863902e-04  5.5527551419615542e-04  5.5527017211416782e-04  5.5526603841944959e-04  5.5526283943013353e-04  5.5526036324034809e-04  5.5525844595321640e-04  5.5525696089788531e-04  5.5525581020795796e-04  5.5525491826772329e-04  5.5525422663186576e-04  5.5525369010145842e-04  5.5525327370111886e-04  5.5525295035358413e-04  5.5525269909127760e-04  5.5525250367996363e-04  5.5525235155824194e-04  5.5525223301861797e-04  5.5525214057272566e-04  5.5525206845622355e-04  5.5525201223923274e-04  5.5525196851700963e-04  5.5525193466321931e-04  5.5525190863443287e-04  5.5525188881875198e-04  5.5525187392336086e-04  5.5525186289557638e-04  5.5525185487076249e-04  5.5525184913924231e-04  5.5525184512465059e-04  5.5525184236757802e-04  5.5525184051062853e-04  5.5525183928327579e-04  5.5525183848649008e-04  5.5525183797789897e-04  5.5525183765835499e-04  5.5525183746052203e-04  5.5525183733971524e-04  5.5525183726688688e-04  5.5525183722353886e-04  5.5525183719809968e-04  5.5525183718347542e-04  5.5525183717545004e-04  5.5525183717168981e-04  1.6639305551020887e-03  5.5525183732195427e-04  2.7769797186873320e-04  2.7769797193181724e-04  2.7769797206419778e-04  2.7769797232108691e-04  2.7769797280565269e-04  2.7769797370542920e-04  2.7769797535531012e-04  2.7769797834446342e-04  2.7769798369492405e-04  2.7769799315609933e-04  2.7769800968632146e-04  2.7769803823883066e-04  2.7769808705375114e-04  2.7769816981788111e-04  2.7769830936433260e-04  2.7769854417546429e-04  2.7769894003034387e-04  2.7769961096010408e-04  2.7770075642067591e-04  2.7770272500334496e-04  2.7770611766370567e-04  2.7771194173619254e-04  2.7772181423654622e-04  2.7773818029268050e-04  2.7776445427463414e-04  2.7780491700812220e-04  2.7786415507721676e-04  2.7794589322379434e-04  2.7805133954720966e-04  2.7817759812096769e-04  2.7831693071535453e-04  2.7845740357583016e-04  2.7858502651557487e-04  2.7868679025228857e-04  2.7875326243067606e-04  2.7877962758881864e-04  2.7876538170344391e-04  2.7871391133456439e-04  2.7863221734678137e-04  2.7852995211877826e-04  2.7841766644711694e-04  2.7830491687384838e-04  2.7819896893373832e-04  2.7810434835062140e-04  2.7802309520802545e-04  2.7795538894050191e-04  2.7790023689385304e-04  2.7785605411805486e-04  2.7782107621341517e-04  2.7779361023512320e-04  2.7777215946067792e-04  2.7775546525168638e-04  2.7774250207546100e-04  2.7773245062918066e-04  2.7772466420540750e-04  2.7771863605091434e-04  2.7771397084226722e-04  2.7771036105592775e-04  2.7770756794905587e-04  2.7770540647014259e-04  2.7770373337316230e-04  2.7770243789060507e-04  2.7770143443085250e-04  2.7770065687562624e-04  2.7770005414362852e-04  2.7769958675346196e-04  2.7769922417059605e-04  2.7769894276494456e-04  2.7769872424042268e-04  2.7769855442745251e-04  2.7769842235384341e-04  2.7769831952895250e-04  2.7769823939103862e-04  2.7769817687901198e-04  2.7769812809842948e-04  2.7769809005848166e-04  2.7769806046268905e-04  2.7769803754135549e-04  2.7769801991828528e-04  2.7769800650734224e-04  2.7769799643574629e-04  2.7769798899068718e-04  2.7769798358470813e-04  2.7769797973430159e-04  2.7769797704620130e-04  2.7769797520697651e-04  2.7769797397320160e-04  2.7769797316117001e-04  2.7769797263626844e-04  2.7769797230265585e-04  2.7769797209393040e-04  2.7769797196523256e-04  2.7769797188694959e-04  2.7769797183993370e-04  2.7769797181204369e-04  2.7769797179572162e-04  2.7769797178634701e-04  2.7769797178117222e-04  2.7769797177864956e-04  5.5525183717163474e-04  5.5525183739967867e-04  2.7769797191376250e-04  2.7769797201007110e-04  2.7769797221414511e-04  2.7769797261441444e-04  2.7769797337840119e-04  2.7769797481453024e-04  2.7769797748047691e-04  2.7769798236889205e-04  2.7769799121969344e-04  2.7769800703605733e-04  2.7769803492459425e-04  2.7769808345093247e-04  2.7769816682692857e-04  2.7769830848576097e-04  2.7769854708726047e-04  2.7769894698863399e-04  2.7769961717973035e-04  2.7770074632214935e-04  2.7770266764264224e-04  2.7770597625174573e-04  2.7771173107070054e-04  2.7772177700381007e-04  2.7773920484286402e-04  2.7776890192161586e-04  2.7781801099064447e-04  2.7789591234966804e-04  2.7801316110605739e-04  2.7817887597833936e-04  2.7839671880951683e-04  2.7866089515184253e-04  2.7895426335675273e-04  2.7924979753229327e-04  2.7951584121375098e-04  2.7972380560868280e-04  2.7985441666741043e-04  2.7989922315808436e-04  2.7985850357374403e-04  2.7974022334964434e-04  2.7956032316627422e-04  2.7934065174036447e-04  2.7910453722162256e-04  2.7887219924283924e-04  2.7865805254123481e-04  2.7847018725510146e-04  2.7831140705217810e-04  2.7818089174383345e-04  2.7807576765792830e-04  2.7799229834333275e-04  2.7792666091991554e-04  2.7787536854784900e-04  2.7783544284595954e-04  2.7780443927689506e-04  2.7778039964840100e-04  2.7776177734885977e-04  2.7774736052298685e-04  2.7773620394332967e-04  2.7772757231575286e-04  2.7772089465774271e-04  2.7771572822354000e-04  2.7771173015305649e-04  2.7770863524883004e-04  2.7770623858228144e-04  2.7770438188905113e-04  2.7770294295446967e-04  2.7770182736935238e-04  2.7770096215635641e-04  2.7770029086110118e-04  2.7769976978016828e-04  2.7769936506401538e-04  2.7769905049027154e-04  2.7769880575031510e-04  2.7769861512895146e-04  2.7769846648491910e-04  2.7769835046057196e-04  2.7769825986456362e-04  2.7769818918387223e-04  2.7769813419287930e-04  2.7769809163793080e-04  2.7769805898501977e-04  2.7769803422439306e-04  2.7769801572791230e-04  2.7769800215319483e-04  2.7769799238496791e-04  2.7769798550136745e-04  2.7769798075309655e-04  2.7769797754633016e-04  2.7769797542442172e-04  2.7769797404726692e-04  2.7769797316947104e-04  2.7769797261923372e-04  2.7769797227958283e-04  2.7769797207286462e-04  2.7769797194868536e-04  2.7769797187499371e-04  2.7769797183177942e-04  2.7769797180676449e-04  2.7769797179254567e-04  2.7769797178477318e-04  2.7769797178102390e-04  5.5525183717514397e-04  5.5525183754360065e-04  2.7769797199943405e-04  2.7769797216045070e-04  2.7769797250482416e-04  2.7769797318837730e-04  2.7769797451011370e-04  2.7769797702823754e-04  2.7769798176626158e-04  2.7769799057077941e-04  2.7769800671921204e-04  2.7769803593029205e-04  2.7769808801003535e-04  2.7769817948688705e-04  2.7769833778879319e-04  2.7769860788776882e-04  2.7769906311846766e-04  2.7769982359310139e-04  2.7770108934719809e-04  2.7770320292091604e-04  2.7770677016637616e-04  2.7771289108642909e-04  2.7772358312255237e-04  2.7774250475681917e-04  2.7777607153540426e-04  2.7783493090418173e-04  2.7793543727845784e-04  2.7810020020821002e-04  2.7835611410710842e-04  2.7872811480081995e-04  2.7922841737328087e-04  2.7984524596553947e-04  2.8053726960050514e-04  2.8123662706042407e-04  2.8186269643000044e-04  2.8234409524817124e-04  2.8263629031928224e-04  2.8272334556671887e-04  2.8260818979422114e-04  2.8231028828124488e-04  2.8186996386409815e-04  2.8134296420369244e-04  2.8078744585093046e-04  2.8025136329087820e-04  2.7976648555051329e-04  2.7934843500483848e-04  2.7900044033320046e-04  2.7871803536017411e-04  2.7849291773901892e-04  2.7831559436931213e-04  2.7817696523880917e-04  2.7806907390478299e-04  2.7798532033157676e-04  2.7792039797708696e-04  2.7787011608998441e-04  2.7783119497805251e-04  2.7780107924168677e-04  2.7777778261109983e-04  2.7775976321511896e-04  2.7774582531475147e-04  2.7773504263510604e-04  2.7772669846833867e-04  2.7772023886233493e-04  2.7771523604895381e-04  2.7771135984723717e-04  2.7770835536592667e-04  2.7770602571893297e-04  2.7770421869394174e-04  2.7770281650825441e-04  2.7770172795167701e-04  2.7770088235709779e-04  2.7770022496658673e-04  2.7769971336495902e-04  2.7769931473108469e-04  2.7769900371553896e-04  2.7769876079538860e-04  2.7769857098770649e-04  2.7769842282872082e-04  2.7769830754995940e-04  2.7769821840731832e-04  2.7769815014077421e-04  2.7769809855672961e-04  2.7769806022832542e-04  2.7769803230218897e-04  2.7769801238875907e-04  2.7769799850554136e-04  2.7769798904355439e-04  2.7769798273585031e-04  2.7769797861836813e-04  2.7769797598276849e-04  2.7769797432587235e-04  2.7769797330125104e-04  2.7769797267704832e-04  2.7769797230194440e-04  2.7769797207935043e-04  2.7769797194880240e-04  2.7769797187310894e-04  2.7769797182976486e-04  2.7769797180537714e-04  2.7769797179216712e-04  2.7769797178584584e-04  5.5525183718256816e-04  5.5525183778955484e-04  2.7769797214778088e-04  2.7769797242360738e-04  2.7769797301930216e-04  2.7769797421575384e-04  2.7769797655912646e-04  2.7769798108360881e-04  2.7769798971318172e-04  2.7769800596945361e-04  2.7769803619035583e-04  2.7769809157836061e-04  2.7769819155736155e-04  2.7769836914010650e-04  2.7769867933301681e-04  2.7769921215882817e-04  2.7770011303478496e-04  2.7770161598775249e-04  2.7770410177899645e-04  2.7770820798341022e-04  2.7771504908054355e-04  2.7772666149583055e-04  2.7774687657725587e-04  2.7778292568387338e-04  2.7784811892215611e-04  2.7796573440213353e-04  2.7817352643380431e-04  2.7852674916898750e-04  2.7909538787160629e-04  2.7994970561314662e-04  2.8113090522848450e-04  2.8261826556107009e-04  2.8431206021773856e-04  2.8603697771776063e-04  2.8757707244583580e-04  2.8874254474063431e-04  2.8942507682578884e-04  2.8959723040962183e-04  2.8927004168778864e-04  2.8849012820079630e-04  2.8736611103597750e-04  2.8604967291701126e-04  2.8469333225179854e-04  2.8341410389141132e-04  2.8228197953505800e-04  2.8132466922288442e-04  2.8054075317253326e-04  2.7991303770447400e-04  2.7941787124283261e-04  2.7903084860861680e-04  2.7872992559616408e-04  2.7849658619676749e-04  2.7831588522513290e-04  2.7817603065723938e-04  2.7806782712471725e-04  2.7798413300177339e-04  2.7791940853606393e-04  2.7786936006173464e-04  2.7783066050700663e-04  2.7780073275172364e-04  2.7777758251865109e-04  2.7775966817234946e-04  2.7774579916949662e-04  2.7773505689033688e-04  2.7772673271398264e-04  2.7772027977406212e-04  2.7771527566984686e-04  2.7771139378621841e-04  2.7770838131008127e-04  2.7770604240177801e-04  2.7770422528785931e-04  2.7770281233820588e-04  2.7770171242648184e-04  2.7770085504131566e-04  2.7770018574057199e-04  2.7769966262934794e-04  2.7769925360395198e-04  2.7769893415594915e-04  2.7769868558474641e-04  2.7769849352605048e-04  2.7769834675750557e-04  2.7769823627742302e-04  2.7769815465738694e-04  2.7769809564617354e-04  2.7769805396751193e-04  2.7769802523197547e-04  2.7769800588766822e-04  2.7769799316015571e-04  2.7769798496345285e-04  2.7769797978729349e-04  2.7769797657623701e-04  2.7769797461592912e-04  2.7769797343636551e-04  2.7769797273584796e-04  2.7769797232481396e-04  2.7769797208634732e-04  2.7769797194951787e-04  2.7769797187194678e-04  2.7769797182871140e-04  2.7769797180548730e-04  2.7769797179444345e-04  5.5525183719588704e-04  5.5525183819335315e-04  2.7769797239386967e-04  2.7769797286538979e-04  2.7769797389395244e-04  2.7769797598421373e-04  2.7769798013090220e-04  2.7769798824529612e-04  2.7769800393744965e-04  2.7769803391792689e-04  2.7769809045137859e-04  2.7769819554271049e-04  2.7769838788056696e-04  2.7769873400889202e-04  2.7769934575478305e-04  2.7770040670441968e-04  2.7770221195132190e-04  2.7770522902249536e-04  2.7771019816214400e-04  2.7771831711027146e-04  2.7773161901532584e-04  2.7775378383685729e-04  2.7779185756549008e-04  2.7785968559754221e-04  2.7798415782316496e-04  2.7821519360423031e-04  2.7863897475963428e-04  2.7939029972829022e-04  2.8065333872003998e-04  2.8263220231527131e-04  2.8547160785821247e-04  2.8915845507472294e-04  2.9346635067701047e-04  2.9793558669146747e-04  3.0194766811434770e-04  3.0494429523907871e-04  3.0663263047821129e-04  3.0697754797811557e-04  3.0600864922197780e-04  3.0383434040728895e-04  3.0078571963250818e-04  2.9731973616311662e-04  2.9386373328248194e-04  2.9070712854023718e-04  2.8799478361110875e-04  2.8575865818548674e-04  2.8396481026291974e-04  2.8255154381067740e-04  2.8145044294845882e-04  2.8059746750064610e-04  2.7993831530110258e-04  2.7942932105836889e-04  2.7903624159993773e-04  2.7873258728452615e-04  2.7849797497663892e-04  2.7831669396631656e-04  2.7817661316153098e-04  2.7806836277339831e-04  2.7798469913748217e-04  2.7792002070199239e-04  2.7786999979407455e-04  2.7783129566669846e-04  2.7780133147210979e-04  2.7777812116319076e-04  2.7776013396587371e-04  2.7774618898671218e-04  2.7773537416298221e-04  2.7772698413729174e-04  2.7772047277574739e-04  2.7771541690421210e-04  2.7771148849714772e-04  2.7770843328238154e-04  2.7770605426477932e-04  2.7770419902493974e-04  2.7770274992074730e-04  2.7770161650477138e-04  2.7770072958956571e-04  2.7770003649713856e-04  2.7769949715174773e-04  2.7769908082006197e-04  2.7769876344012063e-04  2.7769852556683023e-04  2.7769835096593562e-04  2.7769822581304225e-04  2.7769813834782961e-04  2.7769807877108470e-04  2.7769803919154925e-04  2.7769801350776343e-04  2.7769799719649636e-04  2.7769798703669872e-04  2.7769798081707587e-04  2.7769797706774939e-04  2.7769797483850872e-04  2.7769797352950910e-04  2.7769797276966547e-04  2.7769797233335840e-04  2.7769797208549324e-04  2.7769797194631920e-04  2.7769797186945355e-04  2.7769797182849732e-04  2.7769797180913022e-04  5.5525183721861560e-04  5.5525183883870877e-04  2.7769797279103195e-04  2.7769797358748633e-04  2.7769797534260327e-04  2.7769797895173059e-04  2.7769798620460288e-04  2.7769800059236171e-04  2.7769802881478183e-04  2.7769808353259138e-04  2.7769818827842177e-04  2.7769838599523756e-04  2.7769875344768418e-04  2.7769942473314483e-04  2.7770062819959431e-04  2.7770274210286468e-04  2.7770637548146906e-04  2.7771248383746022e-04  2.7772254137536185e-04  2.7773883286093075e-04  2.7776504520929477e-04  2.7780762071096199e-04  2.7787891082908898e-04  2.7800414256152643e-04  2.7823541703014186e-04  2.7867654364358843e-04  2.7952054507958412e-04  2.8109460509825011e-04  2.8389086210492902e-04  2.8853271714863560e-04  2.9557573905239422e-04  3.0521211447466967e-04  3.1707805304548135e-04  3.2999396449675617e-04  3.4194521976084312e-04  3.5088556744695601e-04  3.5575250409353902e-04  3.5653562910916776e-04  3.5326333458720195e-04  3.4617740905619162e-04  3.3661771416277616e-04  3.2631051962782028e-04  3.1661901344060044e-04  3.0823841277324653e-04  3.0137540787004313e-04  2.9593611401754774e-04  2.9170451797862370e-04  2.8844870820196166e-04  2.8595677146350671e-04  2.8405061102041725e-04  2.8259049649697753e-04  2.8146997097441276e-04  2.8060840054973640e-04  2.7994494021367744e-04  2.7943358564333037e-04  2.7903923031841193e-04  2.7873495431290538e-04  2.7850009376773955e-04  2.7831874056435268e-04  2.7817863152142952e-04  2.7807032188697459e-04  2.7798653865150857e-04  2.7792168287661461e-04  2.7787144734524782e-04  2.7783251647822455e-04  2.7780233407723908e-04  2.7777892634684484e-04  2.7776076675695480e-04  2.7774667314201494e-04  2.7773572937301076e-04  2.7772722525165643e-04  2.7772061022926216e-04  2.7771545777525948e-04  2.7771143791305070e-04  2.7770829605671516e-04  2.7770583667176279e-04  2.7770391049453976e-04  2.7770240424780044e-04  2.7770123207175135e-04  2.7770032825576477e-04  2.7769964121384050e-04  2.7769912886736926e-04  2.7769875559085545e-04  2.7769849064009544e-04  2.7769830765823986e-04  2.7769818468195842e-04  2.7769810415040629e-04  2.7769805265843073e-04  2.7769802043214881e-04  2.7769800064087336e-04  2.7769798868597834e-04  2.7769798156902157e-04  2.7769797738675804e-04  2.7769797495783699e-04  2.7769797356256800e-04  2.7769797276941296e-04  2.7769797232320880e-04  2.7769797207504490e-04  2.7769797193922933e-04  2.7769797186744956e-04  2.7769797183369499e-04  5.5525183725651443e-04  5.5525183984663385e-04  2.7769797341736216e-04  2.7769797474110931e-04  2.7769797768831679e-04  2.7769798382131931e-04  2.7769799630818009e-04  2.7769802142547684e-04  2.7769807141918176e-04  2.7769816983624299e-04  2.7769836124298376e-04  2.7769872849840748e-04  2.7769942255965037e-04  2.7770071213270011e-04  2.7770306297090949e-04  2.7770725832951189e-04  2.7771457166615807e-04  2.7772700020729443e-04  2.7774757156475322e-04  2.7778077890647414e-04  2.7783338034764645e-04  2.7791633818852619e-04  2.7804998231664583e-04  2.7827708940502554e-04  2.7869264627750041e-04  2.7950327623770639e-04  2.8112979686063767e-04  2.8436047822998106e-04  2.9054121769397744e-04  3.0173697722788779e-04  3.2043546930346056e-04  3.4887198000934500e-04  3.8862928165794169e-04  4.3856713723134522e-04  4.9112948878632650e-04  5.3349726392207199e-04  5.5669068787990732e-04  5.6015837815363595e-04  5.4304382787579352e-04  5.0618958433819457e-04  4.6050132119521559e-04  4.1738150021660846e-04  3.8223637087101911e-04  3.5535106187490419e-04  3.3541695581288435e-04  3.2078265180446140e-04  3.1002712505685202e-04  3.0209799312532008e-04  2.9621786669337520e-04  2.9181927855341467e-04  2.8850327753146841e-04  2.8598816767434813e-04  2.8407087235416393e-04  2.8260394781638948e-04  2.8147909065725401e-04  2.8061506182183466e-04  2.7995042955063877e-04  2.7943865042594061e-04  2.7904419755680874e-04  2.7873986437734771e-04  2.7850483288361467e-04  2.7832314613531048e-04  2.7818256411772896e-04  2.7807370311869607e-04  2.7798935614920987e-04  2.7792397332616903e-04  2.7787327257276171e-04  2.7783394326950093e-04  2.7780342189624192e-04  2.7777972223963016e-04  2.7776130486328020e-04  2.7774697654696449e-04  2.7773581300314813e-04  2.7772709932797100e-04  2.7772028420293833e-04  2.7771494468346744e-04  2.7771075870843914e-04  2.7770748284522531e-04  2.7770493344297334e-04  2.7770297031544578e-04  2.7770148302635762e-04  2.7770038042532647e-04  2.7769958402257695e-04  2.7769902506489651e-04  2.7769864418157960e-04  2.7769839199715999e-04  2.7769822942775153e-04  2.7769812710908020e-04  2.7769806404510808e-04  2.7769802587014874e-04  2.7769800311712564e-04  2.7769798973791276e-04  2.7769798196492407e-04  2.7769797749870577e-04  2.7769797495920455e-04  2.7769797352984667e-04  2.7769797273354257e-04  2.7769797229490554e-04  2.7769797205707349e-04  2.7769797193242802e-04  2.7769797187415020e-04  5.5525183731868779e-04  5.5525184138565211e-04  2.7769797438304894e-04  2.7769797654296702e-04  2.7769798140165686e-04  2.7769799163377312e-04  2.7769801274221277e-04  2.7769805580341646e-04  2.7769814279835972e-04  2.7769831676250050e-04  2.7769866071650424e-04  2.7769933214543622e-04  2.7770062404456242e-04  2.7770306934670982e-04  2.7770761210988272e-04  2.7771587344071309e-04  2.7773053689010986e-04  2.7775585870390938e-04  2.7779827126956389e-04  2.7786703212203572e-04  2.7797504516050253e-04  2.7814083636841958e-04  2.78395318227