<?xml version="1.0"?>
<VTKFile type="UnstructuredGrid"  version="0.1"  >
<UnstructuredGrid>
<Piece  NumberOfPoints="5151" NumberOfCells="10000">
<Points>
<DataArray  type="Float64"  NumberOfComponents="3"  format="ascii">0 0 0  0.02 0 0  0.04 0 0  0.06 0 0  0.08 0 0  0.1 0 0  0.12 0 0  0.14 0 0  0.16 0 0  0.18 0 0  0.2 0 0  0.22 0 0  0.24 0 0  0.26 0 0  0.28 0 0  0.3 0 0  0.32 0 0  0.34 0 0  0.36 0 0  0.38 0 0  0.4 0 0  0.42 0 0  0.44 0 0  0.46 0 0  0.48 0 0  0.5 0 0  0.52 0 0  0.54 0 0  0.5600000000000001 0 0  0.58 0 0  0.6 0 0  0.62 0 0  0.64 0 0  0.66 0 0  0.68 0 0  0.7 0 0  0.72 0 0  0.74 0 0  0.76 0 0  0.78 0 0  0.8 0 0  0.82 0 0  0.84 0 0  0.86 0 0  0.88 0 0  0.9 0 0  0.92 0 0  0.9399999999999999 0 0  0.96 0 0  0.98 0 0  1 0 0  1.02 0 0  1.04 0 0  1.06 0 0  1.08 0 0  1.1 0 0  1.12 0 0  1.14 0 0  1.16 0 0  1.18 0 0  1.2 0 0  1.22 0 0  1.24 0 0  1.26 0 0  1.28 0 0  1.3 0 0  1.32 0 0  1.34 0 0  1.36 0 0  1.38 0 0  1.4 0 0  1.42 0 0  1.44 0 0  1.46 0 0  1.48 0 0  1.5 0 0  1.52 0 0  1.54 0 0  1.56 0 0  1.58 0 0  1.6 0 0  1.62 0 0  1.64 0 0  1.66 0 0  1.68 0 0  1.7 0 0  1.72 0 0  1.74 0 0  1.76 0 0  1.78 0 0  1.8 0 0  1.82 0 0  1.84 0 0  1.86 0 0  1.88 0 0  1.9 0 0  1.92 0 0  1.94 0 0  1.96 0 0  1.98 0 0  2 0 0  0 0.02 0  0.02 0.02 0  0.04 0.02 0  0.06 0.02 0  0.08 0.02 0  0.1 0.02 0  0.12 0.02 0  0.14 0.02 0  0.16 0.02 0  0.18 0.02 0  0.2 0.02 0  0.22 0.02 0  0.24 0.02 0  0.26 0.02 0  0.28 0.02 0  0.3 0.02 0  0.32 0.02 0  0.34 0.02 0  0.36 0.02 0  0.38 0.02 0  0.4 0.02 0  0.42 0.02 0  0.44 0.02 0  0.46 0.02 0  0.48 0.02 0  0.5 0.02 0  0.52 0.02 0  0.54 0.02 0  0.5600000000000001 0.02 0  0.58 0.02 0  0.6 0.02 0  0.62 0.02 0  0.64 0.02 0  0.66 0.02 0  0.68 0.02 0  0.7 0.02 0  0.72 0.02 0  0.74 0.02 0  0.76 0.02 0  0.78 0.02 0  0.8 0.02 0  0.82 0.02 0  0.84 0.02 0  0.86 0.02 0  0.88 0.02 0  0.9 0.02 0  0.92 0.02 0  0.9399999999999999 0.02 0  0.96 0.02 0  0.98 0.02 0  1 0.02 0  1.02 0.02 0  1.04 0.02 0  1.06 0.02 0  1.08 0.02 0  1.1 0.02 0  1.12 0.02 0  1.14 0.02 0  1.16 0.02 0  1.18 0.02 0  1.2 0.02 0  1.22 0.02 0  1.24 0.02 0  1.26 0.02 0  1.28 0.02 0  1.3 0.02 0  1.32 0.02 0  1.34 0.02 0  1.36 0.02 0  1.38 0.02 0  1.4 0.02 0  1.42 0.02 0  1.44 0.02 0  1.46 0.02 0  1.48 0.02 0  1.5 0.02 0  1.52 0.02 0  1.54 0.02 0  1.56 0.02 0  1.58 0.02 0  1.6 0.02 0  1.62 0.02 0  1.64 0.02 0  1.66 0.02 0  1.68 0.02 0  1.7 0.02 0  1.72 0.02 0  1.74 0.02 0  1.76 0.02 0  1.78 0.02 0  1.8 0.02 0  1.82 0.02 0  1.84 0.02 0  1.86 0.02 0  1.88 0.02 0  1.9 0.02 0  1.92 0.02 0  1.94 0.02 0  1.96 0.02 0  1.98 0.02 0  2 0.02 0  0 0.04 0  0.02 0.04 0  0.04 0.04 0  0.06 0.04 0  0.08 0.04 0  0.1 0.04 0  0.12 0.04 0  0.14 0.04 0  0.16 0.04 0  0.18 0.04 0  0.2 0.04 0  0.22 0.04 0  0.24 0.04 0  0.26 0.04 0  0.28 0.04 0  0.3 0.04 0  0.32 0.04 0  0.34 0.04 0  0.36 0.04 0  0.38 0.04 0  0.4 0.04 0  0.42 0.04 0  0.44 0.04 0  0.46 0.04 0  0.48 0.04 0  0.5 0.04 0  0.52 0.04 0  0.54 0.04 0  0.5600000000000001 0.04 0  0.58 0.04 0  0.6 0.04 0  0.62 0.04 0  0.64 0.04 0  0.66 0.04 0  0.68 0.04 0  0.7 0.04 0  0.72 0.04 0  0.74 0.04 0  0.76 0.04 0  0.78 0.04 0  0.8 0.04 0  0.82 0.04 0  0.84 0.04 0  0.86 0.04 0  0.88 0.04 0  0.9 0.04 0  0.92 0.04 0  0.9399999999999999 0.04 0  0.96 0.04 0  0.98 0.04 0  1 0.04 0  1.02 0.04 0  1.04 0.04 0  1.06 0.04 0  1.08 0.04 0  1.1 0.04 0  1.12 0.04 0  1.14 0.04 0  1.16 0.04 0  1.18 0.04 0  1.2 0.04 0  1.22 0.04 0  1.24 0.04 0  1.26 0.04 0  1.28 0.04 0  1.3 0.04 0  1.32 0.04 0  1.34 0.04 0  1.36 0.04 0  1.38 0.04 0  1.4 0.04 0  1.42 0.04 0  1.44 0.04 0  1.46 0.04 0  1.48 0.04 0  1.5 0.04 0  1.52 0.04 0  1.54 0.04 0  1.56 0.04 0  1.58 0.04 0  1.6 0.04 0  1.62 0.04 0  1.64 0.04 0  1.66 0.04 0  1.68 0.04 0  1.7 0.04 0  1.72 0.04 0  1.74 0.04 0  1.76 0.04 0  1.78 0.04 0  1.8 0.04 0  1.82 0.04 0  1.84 0.04 0  1.86 0.04 0  1.88 0.04 0  1.9 0.04 0  1.92 0.04 0  1.94 0.04 0  1.96 0.04 0  1.98 0.04 0  2 0.04 0  0 0.06 0  0.02 0.06 0  0.04 0.06 0  0.06 0.06 0  0.08 0.06 0  0.1 0.06 0  0.12 0.06 0  0.14 0.06 0  0.16 0.06 0  0.18 0.06 0  0.2 0.06 0  0.22 0.06 0  0.24 0.06 0  0.26 0.06 0  0.28 0.06 0  0.3 0.06 0  0.32 0.06 0  0.34 0.06 0  0.36 0.06 0  0.38 0.06 0  0.4 0.06 0  0.42 0.06 0  0.44 0.06 0  0.46 0.06 0  0.48 0.06 0  0.5 0.06 0  0.52 0.06 0  0.54 0.06 0  0.5600000000000001 0.06 0  0.58 0.06 0  0.6 0.06 0  0.62 0.06 0  0.64 0.06 0  0.66 0.06 0  0.68 0.06 0  0.7 0.06 0  0.72 0.06 0  0.74 0.06 0  0.76 0.06 0  0.78 0.06 0  0.8 0.06 0  0.82 0.06 0  0.84 0.06 0  0.86 0.06 0  0.88 0.06 0  0.9 0.06 0  0.92 0.06 0  0.9399999999999999 0.06 0  0.96 0.06 0  0.98 0.06 0  1 0.06 0  1.02 0.06 0  1.04 0.06 0  1.06 0.06 0  1.08 0.06 0  1.1 0.06 0  1.12 0.06 0  1.14 0.06 0  1.16 0.06 0  1.18 0.06 0  1.2 0.06 0  1.22 0.06 0  1.24 0.06 0  1.26 0.06 0  1.28 0.06 0  1.3 0.06 0  1.32 0.06 0  1.34 0.06 0  1.36 0.06 0  1.38 0.06 0  1.4 0.06 0  1.42 0.06 0  1.44 0.06 0  1.46 0.06 0  1.48 0.06 0  1.5 0.06 0  1.52 0.06 0  1.54 0.06 0  1.56 0.06 0  1.58 0.06 0  1.6 0.06 0  1.62 0.06 0  1.64 0.06 0  1.66 0.06 0  1.68 0.06 0  1.7 0.06 0  1.72 0.06 0  1.74 0.06 0  1.76 0.06 0  1.78 0.06 0  1.8 0.06 0  1.82 0.06 0  1.84 0.06 0  1.86 0.06 0  1.88 0.06 0  1.9 0.06 0  1.92 0.06 0  1.94 0.06 0  1.96 0.06 0  1.98 0.06 0  2 0.06 0  0 0.08 0  0.02 0.08 0  0.04 0.08 0  0.06 0.08 0  0.08 0.08 0  0.1 0.08 0  0.12 0.08 0  0.14 0.08 0  0.16 0.08 0  0.18 0.08 0  0.2 0.08 0  0.22 0.08 0  0.24 0.08 0  0.26 0.08 0  0.28 0.08 0  0.3 0.08 0  0.32 0.08 0  0.34 0.08 0  0.36 0.08 0  0.38 0.08 0  0.4 0.08 0  0.42 0.08 0  0.44 0.08 0  0.46 0.08 0  0.48 0.08 0  0.5 0.08 0  0.52 0.08 0  0.54 0.08 0  0.5600000000000001 0.08 0  0.58 0.08 0  0.6 0.08 0  0.62 0.08 0  0.64 0.08 0  0.66 0.08 0  0.68 0.08 0  0.7 0.08 0  0.72 0.08 0  0.74 0.08 0  0.76 0.08 0  0.78 0.08 0  0.8 0.08 0  0.82 0.08 0  0.84 0.08 0  0.86 0.08 0  0.88 0.08 0  0.9 0.08 0  0.92 0.08 0  0.9399999999999999 0.08 0  0.96 0.08 0  0.98 0.08 0  1 0.08 0  1.02 0.08 0  1.04 0.08 0  1.06 0.08 0  1.08 0.08 0  1.1 0.08 0  1.12 0.08 0  1.14 0.08 0  1.16 0.08 0  1.18 0.08 0  1.2 0.08 0  1.22 0.08 0  1.24 0.08 0  1.26 0.08 0  1.28 0.08 0  1.3 0.08 0  1.32 0.08 0  1.34 0.08 0  1.36 0.08 0  1.38 0.08 0  1.4 0.08 0  1.42 0.08 0  1.44 0.08 0  1.46 0.08 0  1.48 0.08 0  1.5 0.08 0  1.52 0.08 0  1.54 0.08 0  1.56 0.08 0  1.58 0.08 0  1.6 0.08 0  1.62 0.08 0  1.64 0.08 0  1.66 0.08 0  1.68 0.08 0  1.7 0.08 0  1.72 0.08 0  1.74 0.08 0  1.76 0.08 0  1.78 0.08 0  1.8 0.08 0  1.82 0.08 0  1.84 0.08 0  1.86 0.08 0  1.88 0.08 0  1.9 0.08 0  1.92 0.08 0  1.94 0.08 0  1.96 0.08 0  1.98 0.08 0  2 0.08 0  0 0.1 0  0.02 0.1 0  0.04 0.1 0  0.06 0.1 0  0.08 0.1 0  0.1 0.1 0  0.12 0.1 0  0.14 0.1 0  0.16 0.1 0  0.18 0.1 0  0.2 0.1 0  0.22 0.1 0  0.24 0.1 0  0.26 0.1 0  0.28 0.1 0  0.3 0.1 0  0.32 0.1 0  0.34 0.1 0  0.36 0.1 0  0.38 0.1 0  0.4 0.1 0  0.42 0.1 0  0.44 0.1 0  0.46 0.1 0  0.48 0.1 0  0.5 0.1 0  0.52 0.1 0  0.54 0.1 0  0.5600000000000001 0.1 0  0.58 0.1 0  0.6 0.1 0  0.62 0.1 0  0.64 0.1 0  0.66 0.1 0  0.68 0.1 0  0.7 0.1 0  0.72 0.1 0  0.74 0.1 0  0.76 0.1 0  0.78 0.1 0  0.8 0.1 0  0.82 0.1 0  0.84 0.1 0  0.86 0.1 0  0.88 0.1 0  0.9 0.1 0  0.92 0.1 0  0.9399999999999999 0.1 0  0.96 0.1 0  0.98 0.1 0  1 0.1 0  1.02 0.1 0  1.04 0.1 0  1.06 0.1 0  1.08 0.1 0  1.1 0.1 0  1.12 0.1 0  1.14 0.1 0  1.16 0.1 0  1.18 0.1 0  1.2 0.1 0  1.22 0.1 0  1.24 0.1 0  1.26 0.1 0  1.28 0.1 0  1.3 0.1 0  1.32 0.1 0  1.34 0.1 0  1.36 0.1 0  1.38 0.1 0  1.4 0.1 0  1.42 0.1 0  1.44 0.1 0  1.46 0.1 0  1.48 0.1 0  1.5 0.1 0  1.52 0.1 0  1.54 0.1 0  1.56 0.1 0  1.58 0.1 0  1.6 0.1 0  1.62 0.1 0  1.64 0.1 0  1.66 0.1 0  1.68 0.1 0  1.7 0.1 0  1.72 0.1 0  1.74 0.1 0  1.76 0.1 0  1.78 0.1 0  1.8 0.1 0  1.82 0.1 0  1.84 0.1 0  1.86 0.1 0  1.88 0.1 0  1.9 0.1 0  1.92 0.1 0  1.94 0.1 0  1.96 0.1 0  1.98 0.1 0  2 0.1 0  0 0.12 0  0.02 0.12 0  0.04 0.12 0  0.06 0.12 0  0.08 0.12 0  0.1 0.12 0  0.12 0.12 0  0.14 0.12 0  0.16 0.12 0  0.18 0.12 0  0.2 0.12 0  0.22 0.12 0  0.24 0.12 0  0.26 0.12 0  0.28 0.12 0  0.3 0.12 0  0.32 0.12 0  0.34 0.12 0  0.36 0.12 0  0.38 0.12 0  0.4 0.12 0  0.42 0.12 0  0.44 0.12 0  0.46 0.12 0  0.48 0.12 0  0.5 0.12 0  0.52 0.12 0  0.54 0.12 0  0.5600000000000001 0.12 0  0.58 0.12 0  0.6 0.12 0  0.62 0.12 0  0.64 0.12 0  0.66 0.12 0  0.68 0.12 0  0.7 0.12 0  0.72 0.12 0  0.74 0.12 0  0.76 0.12 0  0.78 0.12 0  0.8 0.12 0  0.82 0.12 0  0.84 0.12 0  0.86 0.12 0  0.88 0.12 0  0.9 0.12 0  0.92 0.12 0  0.9399999999999999 0.12 0  0.96 0.12 0  0.98 0.12 0  1 0.12 0  1.02 0.12 0  1.04 0.12 0  1.06 0.12 0  1.08 0.12 0  1.1 0.12 0  1.12 0.12 0  1.14 0.12 0  1.16 0.12 0  1.18 0.12 0  1.2 0.12 0  1.22 0.12 0  1.24 0.12 0  1.26 0.12 0  1.28 0.12 0  1.3 0.12 0  1.32 0.12 0  1.34 0.12 0  1.36 0.12 0  1.38 0.12 0  1.4 0.12 0  1.42 0.12 0  1.44 0.12 0  1.46 0.12 0  1.48 0.12 0  1.5 0.12 0  1.52 0.12 0  1.54 0.12 0  1.56 0.12 0  1.58 0.12 0  1.6 0.12 0  1.62 0.12 0  1.64 0.12 0  1.66 0.12 0  1.68 0.12 0  1.7 0.12 0  1.72 0.12 0  1.74 0.12 0  1.76 0.12 0  1.78 0.12 0  1.8 0.12 0  1.82 0.12 0  1.84 0.12 0  1.86 0.12 0  1.88 0.12 0  1.9 0.12 0  1.92 0.12 0  1.94 0.12 0  1.96 0.12 0  1.98 0.12 0  2 0.12 0  0 0.14 0  0.02 0.14 0  0.04 0.14 0  0.06 0.14 0  0.08 0.14 0  0.1 0.14 0  0.12 0.14 0  0.14 0.14 0  0.16 0.14 0  0.18 0.14 0  0.2 0.14 0  0.22 0.14 0  0.24 0.14 0  0.26 0.14 0  0.28 0.14 0  0.3 0.14 0  0.32 0.14 0  0.34 0.14 0  0.36 0.14 0  0.38 0.14 0  0.4 0.14 0  0.42 0.14 0  0.44 0.14 0  0.46 0.14 0  0.48 0.14 0  0.5 0.14 0  0.52 0.14 0  0.54 0.14 0  0.5600000000000001 0.14 0  0.58 0.14 0  0.6 0.14 0  0.62 0.14 0  0.64 0.14 0  0.66 0.14 0  0.68 0.14 0  0.7 0.14 0  0.72 0.14 0  0.74 0.14 0  0.76 0.14 0  0.78 0.14 0  0.8 0.14 0  0.82 0.14 0  0.84 0.14 0  0.86 0.14 0  0.88 0.14 0  0.9 0.14 0  0.92 0.14 0  0.9399999999999999 0.14 0  0.96 0.14 0  0.98 0.14 0  1 0.14 0  1.02 0.14 0  1.04 0.14 0  1.06 0.14 0  1.08 0.14 0  1.1 0.14 0  1.12 0.14 0  1.14 0.14 0  1.16 0.14 0  1.18 0.14 0  1.2 0.14 0  1.22 0.14 0  1.24 0.14 0  1.26 0.14 0  1.28 0.14 0  1.3 0.14 0  1.32 0.14 0  1.34 0.14 0  1.36 0.14 0  1.38 0.14 0  1.4 0.14 0  1.42 0.14 0  1.44 0.14 0  1.46 0.14 0  1.48 0.14 0  1
[...]
<PointData  Scalars="sols[i]"> 
<DataArray  type="Float64"  Name="sols[i]"  format="ascii">9.2595644568557363e-06  6.1697245754328096e-06  6.1697245754412672e-06  6.1697245754571270e-06  6.1697245754845718e-06  6.1697245755301726e-06  6.1697245756037976e-06  6.1697245757196886e-06  6.1697245758973894e-06  6.1697245761623557e-06  6.1697245765456652e-06  6.1697245770821733e-06  6.1697245778067439e-06  6.1697245787484243e-06  6.1697245799233641e-06  6.1697245813283461e-06  6.1697245829377239e-06  6.1697245847058103e-06  6.1697245865752536e-06  6.1697245884889441e-06  6.1697245903999969e-06  6.1697245922746757e-06  6.1697245940860023e-06  6.1697245958002250e-06  6.1697245973630770e-06  6.1697245986939115e-06  6.1697245996923516e-06  6.1697246002568075e-06  6.1697246003084020e-06  6.1697245998114291e-06  6.1697245987838418e-06  6.1697245972947520e-06  6.1697245954514863e-06  6.1697245933810023e-06  6.1697245912110691e-06  6.1697245890551153e-06  6.1697245870030950e-06  6.1697245851178546e-06  6.1697245834361918e-06  6.1697245819728687e-06  6.1697245807259134e-06  6.1697245796819131e-06  6.1697245788209778e-06  6.1697245781205036e-06  6.1697245775582270e-06  6.1697245771148400e-06  6.1697245767768391e-06  6.1697245765408557e-06  6.1697245764223575e-06  6.1697245764732007e-06  6.1697245768186054e-06  6.1697245777341244e-06  6.1697245798043991e-06  6.1697245842477358e-06  6.1697245935732449e-06  6.1697246128973157e-06  6.1697246525507430e-06  6.1697247331754064e-06  6.1697248955459218e-06  6.1697252191877640e-06  6.1697258570234015e-06  6.1697270984913530e-06  6.1697294817653537e-06  6.1697339876891377e-06  6.1697423639127382e-06  6.1697576452763701e-06  6.1697849483806632e-06  6.1698326068312321e-06  6.1699136419652193e-06  6.1700473609469202e-06  6.1702604146237955e-06  6.1705857556210716e-06  6.1710565659782798e-06  6.1716912913456331e-06  6.1724690420434595e-06  6.1733060894839610e-06  6.1740472129916565e-06  6.1744896083850547e-06  6.1744809900225376e-06  6.1740275620080675e-06  6.1732768704465092e-06  6.1724265403839309e-06  6.1716401567941670e-06  6.1710053596698196e-06  6.1705406221170555e-06  6.1702243406068902e-06  6.1700208265692249e-06  6.1698955014080451e-06  6.1698209815002369e-06  6.1697779118369429e-06  6.1697535961836312e-06  6.1697401366934348e-06  6.1697328115980443e-06  6.1697288837299097e-06  6.1697268052458879e-06  6.1697257187067794e-06  6.1697251575296083e-06  6.1697248720671570e-06  6.1697247314655475e-06  6.1697246700453124e-06  1.8529018985497139e-05  6.1697245754336244e-06  3.0798704305922861e-06  3.0798704305971460e-06  3.0798704306065167e-06  3.0798704306229640e-06  3.0798704306506171e-06  3.0798704306957804e-06  3.0798704307676995e-06  3.0798704308792910e-06  3.0798704310476917e-06  3.0798704312942439e-06  3.0798704316434379e-06  3.0798704321204187e-06  3.0798704327469088e-06  3.0798704335359759e-06  3.0798704344869699e-06  3.0798704355827285e-06  3.0798704367909402e-06  3.0798704380702581e-06  3.0798704393794906e-06  3.0798704406857594e-06  3.0798704419673122e-06  3.0798704432088766e-06  3.0798704443911101e-06  3.0798704454793408e-06  3.0798704464180727e-06  3.0798704471353042e-06  3.0798704475562025e-06  3.0798704476212559e-06  3.0798704473019990e-06  3.0798704466090553e-06  3.0798704455904918e-06  3.0798704443221926e-06  3.0798704428941785e-06  3.0798704413968453e-06  3.0798704399100903e-06  3.0798704384968014e-06  3.0798704372005191e-06  3.0798704360463368e-06  3.0798704350439029e-06  3.0798704341912487e-06  3.0798704334785911e-06  3.0798704328917235e-06  3.0798704324146631e-06  3.0798704320316230e-06  3.0798704317286223e-06  3.0798704314950555e-06  3.0798704313259128e-06  3.0798704312261044e-06  3.0798704312193264e-06  3.0798704313667525e-06  3.0798704318063863e-06  3.0798704328348884e-06  3.0798704350763866e-06  3.0798704398274262e-06  3.0798704497550191e-06  3.0798704702941552e-06  3.0798705124122536e-06  3.0798705980050612e-06  3.0798707702692328e-06  3.0798711132994864e-06  3.0798717883870327e-06  3.0798730997319189e-06  3.0798756102851886e-06  3.0798803396915451e-06  3.0798890901812879e-06  3.0799049593381438e-06  3.0799331016956297e-06  3.0799817735859914e-06  3.0800635951228690e-06  3.0801967022108395e-06  3.0804048675119304e-06  3.0807144909490016e-06  3.0811448272358704e-06  3.0816889909908720e-06  3.0822943717941316e-06  3.0828515458239340e-06  3.0832005029249209e-06  3.0832104524160204e-06  3.0828840242344594e-06  3.0823380254695856e-06  3.0817249300232401e-06  3.0811671110778140e-06  3.0807253742844213e-06  3.0804080144791278e-06  3.0801957292414080e-06  3.0800612080071590e-06  3.0799794670356015e-06  3.0799314199616285e-06  3.0799039253877705e-06  3.0798885360904867e-06  3.0798800816009157e-06  3.0798755110249033e-06  3.0798730748551457e-06  3.0798717927429268e-06  3.0798711258421105e-06  3.0798707829092353e-06  3.0798706089898864e-06  3.0798705231325995e-06  3.0798704844453479e-06  6.1697246600537600e-06  6.1697245754448205e-06  3.0798704305983873e-06  3.0798704306067251e-06  3.0798704306229877e-06  3.0798704306518969e-06  3.0798704307012040e-06  3.0798704307829875e-06  3.0798704309153038e-06  3.0798704311239310e-06  3.0798704314438084e-06  3.0798704319194008e-06  3.0798704326028535e-06  3.0798704335488512e-06  3.0798704348055851e-06  3.0798704364026052e-06  3.0798704383385930e-06  3.0798704405742187e-06  3.0798704430352772e-06  3.0798704456280421e-06  3.0798704482624907e-06  3.0798704508728565e-06  3.0798704534241664e-06  3.0798704558992932e-06  3.0798704582709592e-06  3.0798704604724897e-06  3.0798704623839301e-06  3.0798704638435614e-06  3.0798704646825607e-06  3.0798704647692660e-06  3.0798704640455195e-06  3.0798704625427573e-06  3.0798704603747239e-06  3.0798704577125921e-06  3.0798704547525741e-06  3.0798704516854885e-06  3.0798704486744613e-06  3.0798704458429831e-06  3.0798704432721936e-06  3.0798704410047558e-06  3.0798704390524317e-06  3.0798704374047591e-06  3.0798704360371503e-06  3.0798704349176539e-06  3.0798704340120055e-06  3.0798704332871486e-06  3.0798704327137877e-06  3.0798704322685453e-06  3.0798704319367824e-06  3.0798704317180001e-06  3.0798704316372245e-06  3.0798704317695006e-06  3.0798704322923948e-06  3.0798704335970021e-06  3.0798704365207303e-06  3.0798704428311588e-06  3.0798704562229767e-06  3.0798704843525203e-06  3.0798705429457220e-06  3.0798706639936602e-06  3.0798709118792740e-06  3.0798714146139822e-06  3.0798724232490666e-06  3.0798744225073085e-06  3.0798783317609475e-06  3.0798858596736792e-06  3.0799001088203352e-06  3.0799265649412842e-06  3.0799746366081307e-06  3.0800599051447457e-06  3.0802071372817432e-06  3.0804537484664224e-06  3.0808523389783719e-06  3.0814678922426877e-06  3.0823585687059422e-06  3.0835263077112760e-06  3.0848672220338828e-06  3.0861377245730847e-06  3.0869198278960199e-06  3.0868575073452872e-06  3.0860095327730447e-06  3.0847161354321728e-06  3.0833566392631697e-06  3.0821987900195448e-06  3.0813394237541685e-06  3.0807573708512321e-06  3.0803878561215342e-06  3.0801641737647781e-06  3.0800335514366171e-06  3.0799593712322690e-06  3.0799181734569041e-06  3.0798957106674055e-06  3.0798836536873836e-06  3.0798772705079316e-06  3.0798739326233835e-06  3.0798722067936984e-06  3.0798713238551227e-06  3.0798708768679400e-06  3.0798706534759716e-06  3.0798705446691770e-06  3.0798704962265610e-06  6.1697246758787368e-06  6.1697245754673296e-06  3.0798704306109742e-06  3.0798704306267104e-06  3.0798704306577300e-06  3.0798704307136202e-06  3.0798704308103899e-06  3.0798704309734886e-06  3.0798704312417427e-06  3.0798704316718207e-06  3.0798704323423002e-06  3.0798704333555380e-06  3.0798704348344990e-06  3.0798704369113912e-06  3.0798704397058664e-06  3.0798704432940144e-06  3.0798704476755367e-06  3.0798704527530308e-06  3.0798704583389133e-06  3.0798704641968457e-06  3.0798704701060335e-06  3.0798704759186628e-06  3.0798704815777861e-06  3.0798704870798351e-06  3.0798704923947043e-06  3.0798704973827623e-06  3.0798705017557571e-06  3.0798705051094087e-06  3.0798705070191300e-06  3.0798705071587236e-06  3.0798705053933922e-06  3.0798705018152552e-06  3.0798704967171867e-06  3.0798704905238478e-06  3.0798704837080688e-06  3.0798704767168143e-06  3.0798704699206603e-06  3.0798704635899737e-06  3.0798704578933307e-06  3.0798704529105442e-06  3.0798704486528200e-06  3.0798704450840826e-06  3.0798704421398829e-06  3.0798704397423862e-06  3.0798704378110791e-06  3.0798704362698069e-06  3.0798704350512950e-06  3.0798704341003663e-06  3.0798704333776129e-06  3.0798704328663913e-06  3.0798704325881583e-06  3.0798704326365345e-06  3.0798704332520132e-06  3.0798704349831059e-06  3.0798704390306092e-06  3.0798704479768225e-06  3.0798704673177937e-06  3.0798705086556934e-06  3.0798705962873364e-06  3.0798707806569399e-06  3.0798711654863162e-06  3.0798719617094110e-06  3.0798735929143766e-06  3.0798768974734765e-06  3.0798835071473938e-06  3.0798965370279508e-06  3.0799218024330990e-06  3.0799698833676249e-06  3.0800594691284892e-06  3.0802224915733542e-06  3.0805115206927237e-06  3.0810095956281266e-06  3.0818414171798696e-06  3.0831783772647886e-06  3.0852042966982724e-06  3.0879688131647032e-06  3.0912563500757843e-06  3.0945121176638832e-06  3.0965254824540603e-06  3.0961809635223180e-06  3.0938134850262741e-06  3.0904691343734839e-06  3.0871538605849201e-06  3.0845083672509977e-06  3.0826695418777638e-06  3.0814940395769439e-06  3.0807844503914299e-06  3.0803732525614212e-06  3.0801419958742260e-06  3.0800148664298981e-06  3.0799462364038000e-06  3.0799097454308370e-06  3.0798905987463389e-06  3.0798806721612553e-06  3.0798755822580550e-06  3.0798729991890789e-06  3.0798717010960740e-06  3.0798710551208475e-06  3.0798707375050413e-06  3.0798705850970487e-06  3.0798705180946372e-06  6.1697247072498082e-06  6.1697245755095762e-06  3.0798704306348915e-06  3.0798704306651670e-06  3.0798704307255070e-06  3.0798704308356823e-06  3.0798704310292836e-06  3.0798704313607597e-06  3.0798704319149162e-06  3.0798704328182993e-06  3.0798704342505028e-06  3.0798704364511923e-06  3.0798704397156772e-06  3.0798704443700482e-06  3.0798704507182574e-06  3.0798704589618416e-06  3.0798704691099752e-06  3.0798704809180097e-06  3.0798704939011384e-06  3.0798705074473928e-06  3.0798705209989391e-06  3.0798705342155639e-06  3.0798705470249760e-06  3.0798705595139766e-06  3.0798705716981047e-06  3.0798705832834766e-06  3.0798705935562905e-06  3.0798706014778065e-06  3.0798706059542194e-06  3.0798706061607167e-06  3.0798706017822971e-06  3.0798705930898184e-06  3.0798705808514108e-06  3.0798705661398588e-06  3.0798705501146472e-06  3.0798705338404270e-06  3.0798705181724287e-06  3.0798705037108878e-06  3.0798704908088820e-06  3.0798704796123376e-06  3.0798704701131117e-06  3.0798704622015059e-06  3.0798704557106530e-06  3.0798704504501270e-06  3.0798704462289264e-06  3.0798704428697195e-06  3.0798704402170080e-06  3.0798704381418548e-06  3.0798704365463395e-06  3.0798704353722540e-06  3.0798704346216223e-06  3.0798704344044939e-06  3.0798704350467468e-06  3.0798704373276351e-06  3.0798704429967067e-06  3.0798704558887044e-06  3.0798704843102136e-06  3.0798705461103367e-06  3.0798706793648399e-06  3.0798709646769009e-06  3.0798715712169309e-06  3.0798728505600060e-06  3.0798755250710233e-06  3.0798810593645938e-06  3.0798923771870796e-06  3.0799152096292158e-06  3.0799605526336270e-06  3.0800489801953592e-06  3.0802178787807645e-06  3.0805329616325930e-06  3.0811056258439900e-06  3.0821180879740826e-06  3.0838598780197106e-06  3.0867732717020378e-06  3.0914164828332670e-06  3.0979374396398453e-06  3.1056441067234496e-06  3.1133671448053597e-06  3.1180799023973550e-06  3.1166184635254824e-06  3.1105684904683505e-06  3.1026367757651082e-06  3.0949717684674030e-06  3.0890873396193413e-06  3.0852105258302863e-06  3.0828548878921867e-06  3.0814971186664544e-06  3.0807408540030940e-06  3.0803293710530487e-06  3.0801093680495345e-06  3.0799934108284924e-06  3.0799330544551449e-06  3.0799019985105713e-06  3.0798861913838439e-06  3.0798782282906366e-06  3.0798742559295473e-06  3.0798722928410895e-06  3.0798713317537520e-06  3.0798708665478138e-06  3.0798706465042095e-06  3.0798705508765356e-06  6.1697247548699623e-06  6.1697245755865325e-06  3.0798704306788995e-06  3.0798704307369251e-06  3.0798704308538876e-06  3.0798704310703278e-06  3.0798704314563610e-06  3.0798704321279230e-06  3.0798704332694909e-06  3.0798704351627162e-06  3.0798704382171971e-06  3.0798704429937578e-06  3.0798704502025367e-06  3.0798704606509054e-06  3.0798704751165086e-06  3.0798704941396349e-06  3.0798705177752541e-06  3.0798705454087418e-06  3.0798705757760050e-06  3.0798706072722691e-06  3.0798706384672483e-06  3.0798706685737855e-06  3.0798706975904750e-06  3.0798707259859548e-06  3.0798707540339274e-06  3.0798707811283163e-06  3.0798708054723867e-06  3.0798708243613785e-06  3.0798708349512796e-06  3.0798708351485087e-06  3.0798708242309583e-06  3.0798708029960101e-06  3.0798707734708056e-06  3.0798707383755671e-06  3.0798707005578876e-06  3.0798706625519064e-06  3.0798706263246397e-06  3.0798705931982509e-06  3.0798705638982331e-06  3.0798705386697769e-06  3.0798705174151703e-06  3.0798704998215480e-06  3.0798704854639830e-06  3.0798704738801573e-06  3.0798704646191222e-06  3.0798704572696900e-06  3.0798704514747963e-06  3.0798704469377346e-06  3.0798704434262193e-06  3.0798704407816122e-06  3.0798704389448230e-06  3.0798704380216502e-06  3.0798704384359362e-06  3.0798704412751241e-06  3.0798704490561970e-06  3.0798704674062333e-06  3.0798705087231473e-06  3.0798706000970171e-06  3.0798708003298358e-06  3.0798712362119664e-06  3.0798721791208804e-06  3.0798742049790887e-06  3.0798785239000200e-06  3.0798876488074405e-06  3.0799067256446798e-06  3.0799461178406881e-06  3.0800262823491792e-06  3.0801866370803494e-06  3.0805009585297135e-06  3.0811026311057711e-06  3.0822234308828357e-06  3.0842500562907292e-06  3.0878134479983910e-06  3.0939339525059947e-06  3.1039750913450116e-06  3.1178863408571180e-06  3.1321916586594832e-06  4.7741015853514567e-06  6.4707483003488302e-06  6.4464516863745337e-06  6.3926749006019912e-06  6.3342479274060076e-06  4.6863976373648115e-06  3.0966883521822544e-06  3.0896003402519521e-06  3.0851975442094680e-06  3.0826991806776976e-06  3.0813489777579739e-06  3.0806342979563400e-06  3.0802609084139137e-06  3.0800679923629171e-06  3.0799693827461541e-06  3.0799195083716861e-06  3.0798945438764404e-06  3.0798821732157871e-06  3.0798761019455585e-06  3.0798731494715503e-06  3.0798717265811375e-06  3.0798710481940743e-06  3.0798707317335616e-06  3.0798705956707274e-06  6.1697248200302757e-06  6.1697245757240585e-06  3.0798704307583126e-06  3.0798704308683316e-06  3.0798704310926886e-06  3.0798704315135560e-06  3.0798704322757002e-06  3.0798704336234452e-06  3.0798704359543122e-06  3.0798704398900164e-06  3.0798704463583552e-06  3.0798704566652410e-06  3.0798704725139609e-06  3.0798704959041947e-06  3.0798705288337504e-06  3.0798705727646797e-06  3.0798706279377741e-06  3.0798706928156308e-06  3.0798707640804814e-06  3.0798708374789272e-06  3.0798709092964926e-06  3.0798709777079628e-06  3.0798710431827842e-06  3.0798711075700352e-06  3.0798711721774906e-06  3.0798712357985055e-06  3.0798712938406661e-06  3.0798713391809955e-06  3.0798713643754163e-06  3.0798713641093475e-06  3.0798713367845797e-06  3.0798712847487072e-06  3.0798712133706993e-06  3.0798711295529572e-06  3.0798710402749350e-06  3.0798709515396571e-06  3.0798708678335624e-06  3.0798707920269448e-06  3.0798707255631002e-06  3.0798706687840529e-06  3.0798706212797136e-06  3.0798705821941583e-06  3.0798705504615314e-06  3.0798705249694158e-06  3.0798705046603101e-06  3.0798704885865665e-06  3.0798704759341525e-06  3.0798704660283745e-06  3.0798704583331797e-06  3.0798704524563012e-06  3.0798704481776341e-06  3.0798704455336957e-06  3.0798704450278960e-06  3.0798704481191850e-06  3.0798704583264568e-06  3.0798704836925309e-06  3.0798705422405409e-06  3.0798706739864675e-06  3.0798709672320559e-06  3.0798716157427971e-06  3.0798730421485270e-06  3.0798761618603925e-06  3.0798829413601578e-06  3.0798975635186964e-06  3.0799288201767117e-06  3.0799949242432627e-06  3.0801329378242748e-06  3.0804166268766619e-06  3.0809887731511692e-06  3.0821160687155416e-06  3.0842737733803240e-06  3.0882517809805102e-06  3.0952540463778684e-06  3.1069792052738291e-06  3.1246720379311061e-06  4.7809337717648928e-06  6.5357003755268284e-06  1.0053312969062411e-05  9.9987685298891649e-01  9.9986592072325997e-01  9.9982674350471878e-01  9.9976401113446500e-01  9.9968339733167233e-01  9.4702236341131648e-06  4.6588203074444359e-06  3.0887038690732460e-06  3.0846106995917326e-06  3.0823145270417053e-06  3.0811127797220180e-06  3.0804954607404398e-06  3.0801817053040215e-06  3.0800238789692485e-06  3.0799453279659112e-06  3.0799066442527223e-06  3.0798877872901840e-06  3.0798786831421311e-06  3.0798743268919039e-06  3.0798722603740168e-06  3.0798712898882054e-06  3.0798708433381611e-06  3.0798706533267202e-06  6.1697249037238199e-06  6.1697245759658432e-06  3.0798704308992898e-06  3.0798704311051383e-06  3.0798704315298999e-06  3.0798704323378491e-06  3.0798704338239155e-06  3.0798704364964704e-06  3.0798704412020616e-06  3.0798704492985637e-06  3.0798704628686562e-06  3.0798704849320056e-06  3.0798705195559135e-06  3.0798705716872521e-06  3.0798706464736439e-06  3.0798707479045395e-06  3.0798708769147140e-06  3.0798710296894888e-06  3.0798711974668951e-06  3.0798713688524347e-06  3.0798715340751477e-06  3.0798716888949082e-06  3.0798718357517891e-06  3.0798719811167710e-06  3.0798721299399300e-06  3.0798722799487513e-06  3.0798724192098426e-06  3.0798725287541226e-06  3.0798725889820699e-06  3.0798725864290525e-06  3.0798725177621608e-06  3.0798723898886244e-06  3.0798722170629920e-06  3.0798720167894911e-06  3.0798718061140224e-06  3.0798715991611789e-06  3.0798714060510814e-06  3.0798712328950790e-06  3.0798710824299487e-06  3.0798709549015838e-06  3.0798708489360613e-06  3.0798707622621279e-06  3.0798706922420900e-06  3.0798706362225343e-06  3.0798705917402675e-06  3.0798705566242792e-06  3.0798705290303946e-06  3.0798705074378760e-06  3.0798704906311114e-06  3.0798704776874057e-06  3.0798704679970032e-06  3.0798704613616139e-06  3.0798704582686930e-06  3.0798704605563714e-06  3.0798704729506657e-06  3.0798705065534063e-06  3.0798705866883457e-06  3.0798707704574609e-06  3.0798711858450961e-06  3.0798721183942233e-06  3.0798742022408180e-06  3.0798788382817363e-06  3.0798891018865713e-06  3.0799116928926923e-06  3.0799610705456474e-06  3.0800680781166597e-06  3.0802975534719522e-06  3.0807832924670076e-06  3.0817948360805573e-06  3.0838578165074787e-06  3.0879453251339308e-06  3.0956207237252617e-06  3.1086614114991881e-06  3.1276680564981357e-06  4.7932011428788884e-06  1.0045382742681003e-05  9.9988918456543863e-01  9.9987789925778248e-01  5.0000001974132946e-01  5.0000001460234533e-01  5.0000001297683250e-01  5.0000001124698923e-01  5.0000000897808294e-01  9.9930132642941960e-01  9.9934401396877892e-01  6.2178372129726029e-06  3.0872078792413470e-06  3.0837832323357242e-06  3.0818433655681113e-06  3.0808487903738960e-06  3.0803500238219746e-06  3.0801029858969508e-06  3.0799820446350314e-06  3.0799234951774963e-06  3.0798954450487749e-06  3.0798821338842942e-06  3.0798758710259808e-06  3.0798729478319513e-06  3.0798715958572743e-06  3.0798709822583844e-06  3.0798707238264231e-06  6.1697250057471817e-06  6.1697245763839801e-06  3.0798704311455134e-06  3.0798704315250270e-06  3.0798704323175550e-06  3.0798704338464440e-06  3.0798704367035026e-06  3.0798704419311736e-06  3.0798704513075369e-06  3.0798704677610363e-06  3.0798704959152858e-06  3.0798705426903073e-06  3.0798706177380706e-06  3.0798707332629643e-06  3.0798709025518297e-06  3.0798711365700585e-06  3.0798714387239517e-06  3.0798717996721653e-06  3.0798721961319337e-06  3.0798725972385126e-06  3.0798729769569475e-06  3.0798733254216285e-06  3.07987365216