<?xml version="1.0"?>
<VTKFile type="UnstructuredGrid"  version="0.1"  >
<UnstructuredGrid>
<Piece  NumberOfPoints="5151" NumberOfCells="10000">
<Points>
<DataArray  type="Float64"  NumberOfComponents="3"  format="ascii">0 0 0  0.02 0 0  0.04 0 0  0.06 0 0  0.08 0 0  0.1 0 0  0.12 0 0  0.14 0 0  0.16 0 0  0.18 0 0  0.2 0 0  0.22 0 0  0.24 0 0  0.26 0 0  0.28 0 0  0.3 0 0  0.32 0 0  0.34 0 0  0.36 0 0  0.38 0 0  0.4 0 0  0.42 0 0  0.44 0 0  0.46 0 0  0.48 0 0  0.5 0 0  0.52 0 0  0.54 0 0  0.5600000000000001 0 0  0.58 0 0  0.6 0 0  0.62 0 0  0.64 0 0  0.66 0 0  0.68 0 0  0.7 0 0  0.72 0 0  0.74 0 0  0.76 0 0  0.78 0 0  0.8 0 0  0.82 0 0  0.84 0 0  0.86 0 0  0.88 0 0  0.9 0 0  0.92 0 0  0.9399999999999999 0 0  0.96 0 0  0.98 0 0  1 0 0  1.02 0 0  1.04 0 0  1.06 0 0  1.08 0 0  1.1 0 0  1.12 0 0  1.14 0 0  1.16 0 0  1.18 0 0  1.2 0 0  1.22 0 0  1.24 0 0  1.26 0 0  1.28 0 0  1.3 0 0  1.32 0 0  1.34 0 0  1.36 0 0  1.38 0 0  1.4 0 0  1.42 0 0  1.44 0 0  1.46 0 0  1.48 0 0  1.5 0 0  1.52 0 0  1.54 0 0  1.56 0 0  1.58 0 0  1.6 0 0  1.62 0 0  1.64 0 0  1.66 0 0  1.68 0 0  1.7 0 0  1.72 0 0  1.74 0 0  1.76 0 0  1.78 0 0  1.8 0 0  1.82 0 0  1.84 0 0  1.86 0 0  1.88 0 0  1.9 0 0  1.92 0 0  1.94 0 0  1.96 0 0  1.98 0 0  2 0 0  0 0.02 0  0.02 0.02 0  0.04 0.02 0  0.06 0.02 0  0.08 0.02 0  0.1 0.02 0  0.12 0.02 0  0.14 0.02 0  0.16 0.02 0  0.18 0.02 0  0.2 0.02 0  0.22 0.02 0  0.24 0.02 0  0.26 0.02 0  0.28 0.02 0  0.3 0.02 0  0.32 0.02 0  0.34 0.02 0  0.36 0.02 0  0.38 0.02 0  0.4 0.02 0  0.42 0.02 0  0.44 0.02 0  0.46 0.02 0  0.48 0.02 0  0.5 0.02 0  0.52 0.02 0  0.54 0.02 0  0.5600000000000001 0.02 0  0.58 0.02 0  0.6 0.02 0  0.62 0.02 0  0.64 0.02 0  0.66 0.02 0  0.68 0.02 0  0.7 0.02 0  0.72 0.02 0  0.74 0.02 0  0.76 0.02 0  0.78 0.02 0  0.8 0.02 0  0.82 0.02 0  0.84 0.02 0  0.86 0.02 0  0.88 0.02 0  0.9 0.02 0  0.92 0.02 0  0.9399999999999999 0.02 0  0.96 0.02 0  0.98 0.02 0  1 0.02 0  1.02 0.02 0  1.04 0.02 0  1.06 0.02 0  1.08 0.02 0  1.1 0.02 0  1.12 0.02 0  1.14 0.02 0  1.16 0.02 0  1.18 0.02 0  1.2 0.02 0  1.22 0.02 0  1.24 0.02 0  1.26 0.02 0  1.28 0.02 0  1.3 0.02 0  1.32 0.02 0  1.34 0.02 0  1.36 0.02 0  1.38 0.02 0  1.4 0.02 0  1.42 0.02 0  1.44 0.02 0  1.46 0.02 0  1.48 0.02 0  1.5 0.02 0  1.52 0.02 0  1.54 0.02 0  1.56 0.02 0  1.58 0.02 0  1.6 0.02 0  1.62 0.02 0  1.64 0.02 0  1.66 0.02 0  1.68 0.02 0  1.7 0.02 0  1.72 0.02 0  1.74 0.02 0  1.76 0.02 0  1.78 0.02 0  1.8 0.02 0  1.82 0.02 0  1.84 0.02 0  1.86 0.02 0  1.88 0.02 0  1.9 0.02 0  1.92 0.02 0  1.94 0.02 0  1.96 0.02 0  1.98 0.02 0  2 0.02 0  0 0.04 0  0.02 0.04 0  0.04 0.04 0  0.06 0.04 0  0.08 0.04 0  0.1 0.04 0  0.12 0.04 0  0.14 0.04 0  0.16 0.04 0  0.18 0.04 0  0.2 0.04 0  0.22 0.04 0  0.24 0.04 0  0.26 0.04 0  0.28 0.04 0  0.3 0.04 0  0.32 0.04 0  0.34 0.04 0  0.36 0.04 0  0.38 0.04 0  0.4 0.04 0  0.42 0.04 0  0.44 0.04 0  0.46 0.04 0  0.48 0.04 0  0.5 0.04 0  0.52 0.04 0  0.54 0.04 0  0.5600000000000001 0.04 0  0.58 0.04 0  0.6 0.04 0  0.62 0.04 0  0.64 0.04 0  0.66 0.04 0  0.68 0.04 0  0.7 0.04 0  0.72 0.04 0  0.74 0.04 0  0.76 0.04 0  0.78 0.04 0  0.8 0.04 0  0.82 0.04 0  0.84 0.04 0  0.86 0.04 0  0.88 0.04 0  0.9 0.04 0  0.92 0.04 0  0.9399999999999999 0.04 0  0.96 0.04 0  0.98 0.04 0  1 0.04 0  1.02 0.04 0  1.04 0.04 0  1.06 0.04 0  1.08 0.04 0  1.1 0.04 0  1.12 0.04 0  1.14 0.04 0  1.16 0.04 0  1.18 0.04 0  1.2 0.04 0  1.22 0.04 0  1.24 0.04 0  1.26 0.04 0  1.28 0.04 0  1.3 0.04 0  1.32 0.04 0  1.34 0.04 0  1.36 0.04 0  1.38 0.04 0  1.4 0.04 0  1.42 0.04 0  1.44 0.04 0  1.46 0.04 0  1.48 0.04 0  1.5 0.04 0  1.52 0.04 0  1.54 0.04 0  1.56 0.04 0  1.58 0.04 0  1.6 0.04 0  1.62 0.04 0  1.64 0.04 0  1.66 0.04 0  1.68 0.04 0  1.7 0.04 0  1.72 0.04 0  1.74 0.04 0  1.76 0.04 0  1.78 0.04 0  1.8 0.04 0  1.82 0.04 0  1.84 0.04 0  1.86 0.04 0  1.88 0.04 0  1.9 0.04 0  1.92 0.04 0  1.94 0.04 0  1.96 0.04 0  1.98 0.04 0  2 0.04 0  0 0.06 0  0.02 0.06 0  0.04 0.06 0  0.06 0.06 0  0.08 0.06 0  0.1 0.06 0  0.12 0.06 0  0.14 0.06 0  0.16 0.06 0  0.18 0.06 0  0.2 0.06 0  0.22 0.06 0  0.24 0.06 0  0.26 0.06 0  0.28 0.06 0  0.3 0.06 0  0.32 0.06 0  0.34 0.06 0  0.36 0.06 0  0.38 0.06 0  0.4 0.06 0  0.42 0.06 0  0.44 0.06 0  0.46 0.06 0  0.48 0.06 0  0.5 0.06 0  0.52 0.06 0  0.54 0.06 0  0.5600000000000001 0.06 0  0.58 0.06 0  0.6 0.06 0  0.62 0.06 0  0.64 0.06 0  0.66 0.06 0  0.68 0.06 0  0.7 0.06 0  0.72 0.06 0  0.74 0.06 0  0.76 0.06 0  0.78 0.06 0  0.8 0.06 0  0.82 0.06 0  0.84 0.06 0  0.86 0.06 0  0.88 0.06 0  0.9 0.06 0  0.92 0.06 0  0.9399999999999999 0.06 0  0.96 0.06 0  0.98 0.06 0  1 0.06 0  1.02 0.06 0  1.04 0.06 0  1.06 0.06 0  1.08 0.06 0  1.1 0.06 0  1.12 0.06 0  1.14 0.06 0  1.16 0.06 0  1.18 0.06 0  1.2 0.06 0  1.22 0.06 0  1.24 0.06 0  1.26 0.06 0  1.28 0.06 0  1.3 0.06 0  1.32 0.06 0  1.34 0.06 0  1.36 0.06 0  1.38 0.06 0  1.4 0.06 0  1.42 0.06 0  1.44 0.06 0  1.46 0.06 0  1.48 0.06 0  1.5 0.06 0  1.52 0.06 0  1.54 0.06 0  1.56 0.06 0  1.58 0.06 0  1.6 0.06 0  1.62 0.06 0  1.64 0.06 0  1.66 0.06 0  1.68 0.06 0  1.7 0.06 0  1.72 0.06 0  1.74 0.06 0  1.76 0.06 0  1.78 0.06 0  1.8 0.06 0  1.82 0.06 0  1.84 0.06 0  1.86 0.06 0  1.88 0.06 0  1.9 0.06 0  1.92 0.06 0  1.94 0.06 0  1.96 0.06 0  1.98 0.06 0  2 0.06 0  0 0.08 0  0.02 0.08 0  0.04 0.08 0  0.06 0.08 0  0.08 0.08 0  0.1 0.08 0  0.12 0.08 0  0.14 0.08 0  0.16 0.08 0  0.18 0.08 0  0.2 0.08 0  0.22 0.08 0  0.24 0.08 0  0.26 0.08 0  0.28 0.08 0  0.3 0.08 0  0.32 0.08 0  0.34 0.08 0  0.36 0.08 0  0.38 0.08 0  0.4 0.08 0  0.42 0.08 0  0.44 0.08 0  0.46 0.08 0  0.48 0.08 0  0.5 0.08 0  0.52 0.08 0  0.54 0.08 0  0.5600000000000001 0.08 0  0.58 0.08 0  0.6 0.08 0  0.62 0.08 0  0.64 0.08 0  0.66 0.08 0  0.68 0.08 0  0.7 0.08 0  0.72 0.08 0  0.74 0.08 0  0.76 0.08 0  0.78 0.08 0  0.8 0.08 0  0.82 0.08 0  0.84 0.08 0  0.86 0.08 0  0.88 0.08 0  0.9 0.08 0  0.92 0.08 0  0.9399999999999999 0.08 0  0.96 0.08 0  0.98 0.08 0  1 0.08 0  1.02 0.08 0  1.04 0.08 0  1.06 0.08 0  1.08 0.08 0  1.1 0.08 0  1.12 0.08 0  1.14 0.08 0  1.16 0.08 0  1.18 0.08 0  1.2 0.08 0  1.22 0.08 0  1.24 0.08 0  1.26 0.08 0  1.28 0.08 0  1.3 0.08 0  1.32 0.08 0  1.34 0.08 0  1.36 0.08 0  1.38 0.08 0  1.4 0.08 0  1.42 0.08 0  1.44 0.08 0  1.46 0.08 0  1.48 0.08 0  1.5 0.08 0  1.52 0.08 0  1.54 0.08 0  1.56 0.08 0  1.58 0.08 0  1.6 0.08 0  1.62 0.08 0  1.64 0.08 0  1.66 0.08 0  1.68 0.08 0  1.7 0.08 0  1.72 0.08 0  1.74 0.08 0  1.76 0.08 0  1.78 0.08 0  1.8 0.08 0  1.82 0.08 0  1.84 0.08 0  1.86 0.08 0  1.88 0.08 0  1.9 0.08 0  1.92 0.08 0  1.94 0.08 0  1.96 0.08 0  1.98 0.08 0  2 0.08 0  0 0.1 0  0.02 0.1 0  0.04 0.1 0  0.06 0.1 0  0.08 0.1 0  0.1 0.1 0  0.12 0.1 0  0.14 0.1 0  0.16 0.1 0  0.18 0.1 0  0.2 0.1 0  0.22 0.1 0  0.24 0.1 0  0.26 0.1 0  0.28 0.1 0  0.3 0.1 0  0.32 0.1 0  0.34 0.1 0  0.36 0.1 0  0.38 0.1 0  0.4 0.1 0  0.42 0.1 0  0.44 0.1 0  0.46 0.1 0  0.48 0.1 0  0.5 0.1 0  0.52 0.1 0  0.54 0.1 0  0.5600000000000001 0.1 0  0.58 0.1 0  0.6 0.1 0  0.62 0.1 0  0.64 0.1 0  0.66 0.1 0  0.68 0.1 0  0.7 0.1 0  0.72 0.1 0  0.74 0.1 0  0.76 0.1 0  0.78 0.1 0  0.8 0.1 0  0.82 0.1 0  0.84 0.1 0  0.86 0.1 0  0.88 0.1 0  0.9 0.1 0  0.92 0.1 0  0.9399999999999999 0.1 0  0.96 0.1 0  0.98 0.1 0  1 0.1 0  1.02 0.1 0  1.04 0.1 0  1.06 0.1 0  1.08 0.1 0  1.1 0.1 0  1.12 0.1 0  1.14 0.1 0  1.16 0.1 0  1.18 0.1 0  1.2 0.1 0  1.22 0.1 0  1.24 0.1 0  1.26 0.1 0  1.28 0.1 0  1.3 0.1 0  1.32 0.1 0  1.34 0.1 0  1.36 0.1 0  1.38 0.1 0  1.4 0.1 0  1.42 0.1 0  1.44 0.1 0  1.46 0.1 0  1.48 0.1 0  1.5 0.1 0  1.52 0.1 0  1.54 0.1 0  1.56 0.1 0  1.58 0.1 0  1.6 0.1 0  1.62 0.1 0  1.64 0.1 0  1.66 0.1 0  1.68 0.1 0  1.7 0.1 0  1.72 0.1 0  1.74 0.1 0  1.76 0.1 0  1.78 0.1 0  1.8 0.1 0  1.82 0.1 0  1.84 0.1 0  1.86 0.1 0  1.88 0.1 0  1.9 0.1 0  1.92 0.1 0  1.94 0.1 0  1.96 0.1 0  1.98 0.1 0  2 0.1 0  0 0.12 0  0.02 0.12 0  0.04 0.12 0  0.06 0.12 0  0.08 0.12 0  0.1 0.12 0  0.12 0.12 0  0.14 0.12 0  0.16 0.12 0  0.18 0.12 0  0.2 0.12 0  0.22 0.12 0  0.24 0.12 0  0.26 0.12 0  0.28 0.12 0  0.3 0.12 0  0.32 0.12 0  0.34 0.12 0  0.36 0.12 0  0.38 0.12 0  0.4 0.12 0  0.42 0.12 0  0.44 0.12 0  0.46 0.12 0  0.48 0.12 0  0.5 0.12 0  0.52 0.12 0  0.54 0.12 0  0.5600000000000001 0.12 0  0.58 0.12 0  0.6 0.12 0  0.62 0.12 0  0.64 0.12 0  0.66 0.12 0  0.68 0.12 0  0.7 0.12 0  0.72 0.12 0  0.74 0.12 0  0.76 0.12 0  0.78 0.12 0  0.8 0.12 0  0.82 0.12 0  0.84 0.12 0  0.86 0.12 0  0.88 0.12 0  0.9 0.12 0  0.92 0.12 0  0.9399999999999999 0.12 0  0.96 0.12 0  0.98 0.12 0  1 0.12 0  1.02 0.12 0  1.04 0.12 0  1.06 0.12 0  1.08 0.12 0  1.1 0.12 0  1.12 0.12 0  1.14 0.12 0  1.16 0.12 0  1.18 0.12 0  1.2 0.12 0  1.22 0.12 0  1.24 0.12 0  1.26 0.12 0  1.28 0.12 0  1.3 0.12 0  1.32 0.12 0  1.34 0.12 0  1.36 0.12 0  1.38 0.12 0  1.4 0.12 0  1.42 0.12 0  1.44 0.12 0  1.46 0.12 0  1.48 0.12 0  1.5 0.12 0  1.52 0.12 0  1.54 0.12 0  1.56 0.12 0  1.58 0.12 0  1.6 0.12 0  1.62 0.12 0  1.64 0.12 0  1.66 0.12 0  1.68 0.12 0  1.7 0.12 0  1.72 0.12 0  1.74 0.12 0  1.76 0.12 0  1.78 0.12 0  1.8 0.12 0  1.82 0.12 0  1.84 0.12 0  1.86 0.12 0  1.88 0.12 0  1.9 0.12 0  1.92 0.12 0  1.94 0.12 0  1.96 0.12 0  1.98 0.12 0  2 0.12 0  0 0.14 0  0.02 0.14 0  0.04 0.14 0  0.06 0.14 0  0.08 0.14 0  0.1 0.14 0  0.12 0.14 0  0.14 0.14 0  0.16 0.14 0  0.18 0.14 0  0.2 0.14 0  0.22 0.14 0  0.24 0.14 0  0.26 0.14 0  0.28 0.14 0  0.3 0.14 0  0.32 0.14 0  0.34 0.14 0  0.36 0.14 0  0.38 0.14 0  0.4 0.14 0  0.42 0.14 0  0.44 0.14 0  0.46 0.14 0  0.48 0.14 0  0.5 0.14 0  0.52 0.14 0  0.54 0.14 0  0.5600000000000001 0.14 0  0.58 0.14 0  0.6 0.14 0  0.62 0.14 0  0.64 0.14 0  0.66 0.14 0  0.68 0.14 0  0.7 0.14 0  0.72 0.14 0  0.74 0.14 0  0.76 0.14 0  0.78 0.14 0  0.8 0.14 0  0.82 0.14 0  0.84 0.14 0  0.86 0.14 0  0.88 0.14 0  0.9 0.14 0  0.92 0.14 0  0.9399999999999999 0.14 0  0.96 0.14 0  0.98 0.14 0  1 0.14 0  1.02 0.14 0  1.04 0.14 0  1.06 0.14 0  1.08 0.14 0  1.1 0.14 0  1.12 0.14 0  1.14 0.14 0  1.16 0.14 0  1.18 0.14 0  1.2 0.14 0  1.22 0.14 0  1.24 0.14 0  1.26 0.14 0  1.28 0.14 0  1.3 0.14 0  1.32 0.14 0  1.34 0.14 0  1.36 0.14 0  1.38 0.14 0  1.4 0.14 0  1.42 0.14 0  1.44 0.14 0  1.46 0.14 0  1.48 0.14 0  1
[...]
<PointData  Scalars="sols[i]"> 
<DataArray  type="Float64"  Name="sols[i]"  format="ascii">3.3866867417430557e-01  2.7877178856787560e-01  2.7877182755610935e-01  2.7877189769252847e-01  2.7877201179480970e-01  2.7877219151203791e-01  2.7877247030518532e-01  2.7877289488843060e-01  2.7877352613800144e-01  2.7877444034819193e-01  2.7877573129403838e-01  2.7877751324489519e-01  2.7877992481376046e-01  2.7878313329790128e-01  2.7878733897644725e-01  2.7879277870014396e-01  2.7879972805376196e-01  2.7880850140716446e-01  2.7881944930472952e-01  2.7883295287267829e-01  2.7884941523573198e-01  2.7886925029596221e-01  2.7889286959307502e-01  2.7892066828148193e-01  2.7895301147062634e-01  2.7899022223535208e-01  2.7903257249087543e-01  2.7908027764131410e-01  2.7913349548541977e-01  2.7919232935303018e-01  2.7925683492436659e-01  2.7932702972757228e-01  2.7940290398657358e-01  2.7948443134866896e-01  2.7957157807491029e-01  2.7966430950995469e-01  2.7976259301400380e-01  2.7986639697166460e-01  2.7997568591896449e-01  2.8009041218522407e-01  2.8021050466825731e-01  2.8033585543779754e-01  2.8046630476416601e-01  2.8060162492321356e-01  2.8074150278001608e-01  2.8088552077115336e-01  2.8103313558868565e-01  2.8118365373792598e-01  2.8133620332631593e-01  2.8148970206685126e-01  2.8164282263934393e-01  2.8179395826296461e-01  2.8194119347042557e-01  2.8208228729098866e-01  2.8221467772331688e-01  2.8233551666025902e-01  2.8244174249644011e-01  2.8253019315993422e-01  2.8259775582062352e-01  2.8264154256957946e-01  2.8265907594285489e-01  2.8264846584876613e-01  2.8260856055066524e-01  2.8253905764544479e-01  2.8244056482714103e-01  2.8231460404321007e-01  2.8216355696238615e-01  2.8199055493699071e-01  2.8179932245709721e-01  2.8159398830987081e-01  2.8137888198939282e-01  2.8115833354183717e-01  2.8093649293460699e-01  2.8071718085679126e-01  2.8050377765512635e-01  2.8029915199780409e-01  2.8010562669483324e-01  2.7992497632446828e-01  2.7975844994108223e-01  2.7960681190394504e-01  2.7947039438414334e-01  2.7934915601804849e-01  2.7924274222497253e-01  2.7915054375778775e-01  2.7907175106114818e-01  2.7900540296742049e-01  2.7895042916034529e-01  2.7890568665287085e-01  2.7886999120888384e-01  2.7884214512456285e-01  2.7882096300879655e-01  2.7880529709944979e-01  2.7879406316704292e-01  2.7878626715510901e-01  2.7878103141557575e-01  2.7877761787955624e-01  2.7877544415551098e-01  2.7877408812234500e-01  2.7877327813487657e-01  2.7877286846875821e-01  4.1247472299639365e-01  2.7877179015188619e-01  1.5771750114756014e-01  1.5771754794794768e-01  1.5771764116497713e-01  1.5771780438543614e-01  1.5771807265074067e-01  1.5771849626305140e-01  1.5771914541731558e-01  1.5772011453917106e-01  1.5772152612543838e-01  1.5772353421453134e-01  1.5772632759654667e-01  1.5773013273810782e-01  1.5773521624527786e-01  1.5774188656061822e-01  1.5775049450715056e-01  1.5776143226370298e-01  1.5777513039033042e-01  1.5779205262304041e-01  1.5781268832217199e-01  1.5783754267783373e-01  1.5786712502871222e-01  1.5790193590615220e-01  1.5794245363652015e-01  1.5798912148288627e-01  1.5804233634552009e-01  1.5810243995162976e-01  1.5816971324291998e-01  1.5824437433345151e-01  1.5832658000023223e-01  1.5841643023924534e-01  1.5851397503209269e-01  1.5861922218181149e-01  1.5873214493459914e-01  1.5885268812724629e-01  1.5898077178014530e-01  1.5911629135933730e-01  1.5925911430682663e-01  1.5940907282772274e-01  1.5956595327197232e-01  1.5972948270218398e-01  1.5989931338095281e-01  1.6007500592125568e-01  1.6025601171870774e-01  1.6044165507413000e-01  1.6063111515324593e-01  1.6082340769725723e-01  1.6101736628223307e-01  1.6121162302439301e-01  1.6140458902796212e-01  1.6159443561985889e-01  1.6177907848788059e-01  1.6195616811364041e-01  1.6212309113378320e-01  1.6227698814405023e-01  1.6241479361233466e-01  1.6253330267387112e-01  1.6262926748499901e-01  1.6269952258884571e-01  1.6274113474711471e-01  1.6275156853553557e-01  1.6272885546763582e-01  1.6267175219360094e-01  1.6257987257582029e-01  1.6245377902812791e-01  1.6229502069958585e-01  1.6210611043614542e-01  1.6189043883236848e-01  1.6165213099656905e-01  1.6139585838166268e-01  1.6112662286149693e-01  1.6084953239565952e-01  1.6056958697884513e-01  1.6029149049791655e-01  1.6001949940748961e-01  1.5975731379025918e-01  1.5950801136653694e-01  1.5927402106643157e-01  1.5905713019698864e-01  1.5885851798438955e-01  1.5867880807472623e-01  1.5851813308601209e-01  1.5837620521112747e-01  1.5825238796662264e-01  1.5814576534943198e-01  1.5805520584422345e-01  1.5797941987426289e-01  1.5791701034957337e-01  1.5786651685920444e-01  1.5782645469162043e-01  1.5779535016520690e-01  1.5777177364291800e-01  1.5775437105393678e-01  1.5774189377770997e-01  1.5773322552512192e-01  1.5772740379503813e-01  1.5772363335251588e-01  1.5772129084933889e-01  1.5771992253045847e-01  1.5771923054614256e-01  2.7877287256975924e-01  2.7877183408498024e-01  1.5771754514153760e-01  1.5771761331699982e-01  1.5771775309059166e-01  1.5771799769533695e-01  1.5771839225694562e-01  1.5771899422002902e-01  1.5771987582290925e-01  1.5772112761805629e-01  1.5772286209541075e-01  1.5772521696780847e-01  1.5772835794974549e-01  1.5773248093331932e-01  1.5773781343643917e-01  1.5774461514230223e-01  1.5775317730901001e-01  1.5776382082634419e-01  1.5777689274195791e-01  1.5779276117243132e-01  1.5781180864913694e-01  1.5783442411121454e-01  1.5786099392733458e-01  1.5789189247889729e-01  1.5792747294397735e-01  1.5796805896180605e-01  1.5801393781659098e-01  1.5806535565331065e-01  1.5812251503717822e-01  1.5818557491241592e-01  1.5825465273692638e-01  1.5832982830299430e-01  1.5841114853727359e-01  1.5849863243798892e-01  1.5859227527412317e-01  1.5869205124506167e-01  1.5879791396666459e-01  1.5890979438467154e-01  1.5902759598425534e-01  1.5915118742859216e-01  1.5928039298608515e-01  1.5941498126469586e-01  1.5955465284857753e-01  1.5969902741719050e-01  1.5984763081531955e-01  1.5999988237638607e-01  1.6015508259721115e-01  1.6031240108416167e-01  1.6047086460036342e-01  1.6062934510921983e-01  1.6078654798861869e-01  1.6094100111088053e-01  1.6109104622310561e-01  1.6123483492986820e-01  1.6137033241050819e-01  1.6149533257261173e-01  1.6160748840892991e-01  1.6170436068819527e-01  1.6178348668710418e-01  1.6184246853431891e-01  1.6187907813914817e-01  1.6189137305798768e-01  1.6187781554923972e-01  1.6183738585803686e-01  1.6176968015041393e-01  1.6167498311011169e-01  1.6155430563620041e-01  1.6140938041015510e-01  1.6124261242929355e-01  1.6105698692743656e-01  1.6085594215039081e-01  1.6064321823884251e-01  1.6042269547719884e-01  1.6019823526972168e-01  1.5997353557292465e-01  1.5975200958140440e-01  1.5953669288099726e-01  1.5933018074636132e-01  1.5913459432492588e-01  1.5895157240592783e-01  1.5878228434437452e-01  1.5862745933076491e-01  1.5848742733126767e-01  1.5836216745295498e-01  1.5825136006886781e-01  1.5815443969260937e-01  1.5807064629157730e-01  1.5799907344624356e-01  1.5793871245191335e-01  1.5788849204141769e-01  1.5784731379231037e-01  1.5781408339297576e-01  1.5778773774290819e-01  1.5776726739681374e-01  1.5775173331554965e-01  1.5774027669008536e-01  1.5773212153109045e-01  1.5772657276340976e-01  1.5772301793813032e-01  1.5772094355843985e-01  1.5771994890804161e-01  2.7877330068144884e-01  2.7877191555752312e-01  1.5771763142767289e-01  1.5771774502719707e-01  1.5771796947326061e-01  1.5771834567845286e-01  1.5771892739265581e-01  1.5771977940774884e-01  1.5772097757823897e-01  1.5772261099135362e-01  1.5772478498202031e-01  1.5772762403491647e-01  1.5773127407506266e-01  1.5773590391418771e-01  1.5774170572585461e-01  1.5774889445102377e-01  1.5775770605015887e-01  1.5776839455128167e-01  1.5778122790877946e-01  1.5779648278414737e-01  1.5781443847659163e-01  1.5783537035090595e-01  1.5785954320847062e-01  1.5788720510188542e-01  1.5791858208826326e-01  1.5795387434387842e-01  1.5799325392811522e-01  1.5803686430241315e-01  1.5808482150516159e-01  1.5813721668374481e-01  1.5819411951697784e-01  1.5825558194557271e-01  1.5832164157967504e-01  1.5839232417759344e-01  1.5846764468484581e-01  1.5854760647264937e-01  1.5863219859730962e-01  1.5872139109280786e-01  1.5881512848732882e-01  1.5891332188452795e-01  1.5901584005935659e-01  1.5912250007542633e-01  1.5923305792964662e-01  1.5934719966840424e-01  1.5946453329244889e-01  1.5958458160510672e-01  1.5970677597284172e-01  1.5983045080168903e-01  1.5995483843410646e-01  1.6007906418547302e-01  1.6020214140841699e-01  1.6032296681577207e-01  1.6044031679286636e-01  1.6055284602580727e-01  1.6065909035483644e-01  1.6075747618504357e-01  1.6084633889456970e-01  1.6092395234776147e-01  1.6098857079898732e-01  1.6103848319873859e-01  1.6107207833935505e-01  1.6108791774876441e-01  1.6108481222857768e-01  1.6106189766951359e-01  1.6101870534586515e-01  1.6095522047694444e-01  1.6087192154410093e-01  1.6076979352336512e-01  1.6065031106549948e-01  1.6051539152924899e-01  1.6036732144586549e-01  1.6020866278917811e-01  1.6004214714982434e-01  1.5987056654412371e-01  1.5969666911674585e-01  1.5952306652513484e-01  1.5935215765478991e-01  1.5918607099798165e-01  1.5902662599259013e-01  1.5887531213720346e-01  1.5873328382615545e-01  1.5860136846845571e-01  1.5848008538187325e-01  1.5836967302053906e-01  1.5827012220611081e-01  1.5818121316631190e-01  1.5810255436505768e-01  1.5803362135896787e-01  1.5797379421670260e-01  1.5792239231798447e-01  1.5787870551202207e-01  1.5784202058674252e-01  1.5781164178300849e-01  1.5778690381800731e-01  1.5776717590662825e-01  1.5775185623743912e-01  1.5774035925366076e-01  1.5773210389514414e-01  1.5772651911049074e-01  1.5772308514940611e-01  1.5772137855049451e-01  2.7877415328898641e-01  2.7877205341168493e-01  1.5771777893699768e-01  1.5771796897845836e-01  1.5771831965312610e-01  1.5771887549339958e-01  1.5771969588393334e-01  1.5772085171287475e-01  1.5772242315129081e-01  1.5772450034899654e-01  1.5772718560417898e-01  1.5773059570325637e-01  1.5773486365777964e-01  1.5774013945351417e-01  1.5774658963881888e-01  1.5775439568728497e-01  1.5776375114090396e-01  1.5777485761526430e-01  1.5778791984339802e-01  1.5780314004764290e-01  1.5782071204532722e-01  1.5784081559015814e-01  1.5786361149775135e-01  1.5788923807632058e-01  1.5791780927361820e-01  1.5794941476640234e-01  1.5798412198060452e-01  1.5802197977475468e-01  1.5806302328783098e-01  1.5810727928427365e-01  1.5815477124908692e-01  1.5820552350318107e-01  1.5825956371942401e-01  1.5831692340667450e-01  1.5837763616333872e-01  1.5844173374474843e-01  1.5850924020328377e-01  1.5858016452235205e-01  1.5865449226764680e-01  1.5873217682609631e-01  1.5881313080299381e-01  1.5889721810693927e-01  1.5898424717228946e-01  1.5907396564946341e-01  1.5916605673397177e-01  1.5926013711831366e-01  1.5935575635100602e-01  1.5945239720345450e-01  1.5954947651390264e-01  1.5964634593658095e-01  1.5974229210850571e-01  1.5983653597601516e-01  1.5992823139318385e-01  1.6001646357675009e-01  1.6010024850323767e-01  1.6017853476126076e-01  1.6025020960924660e-01  1.6031411093874209e-01  1.6036904646343594e-01  1.6041382072879345e-01  1.6044726954460287e-01  1.6046830056327172e-01  1.6047593858040443e-01  1.6046937495172173e-01  1.6044802033586403e-01  1.6041155719513839e-01  1.6035998517560512e-01  1.6029365184483751e-01  1.6021326347788276e-01  1.6011987379261522e-01  1.6001485141819127e-01  1.5989982902876376e-01  1.5977663864957362e-01  1.5964723875706149e-01  1.5951363924020345e-01  1.5937782983320981e-01  1.5924171636476969e-01  1.5910706751969708e-01  1.5897547327023343e-01  1.5884831503497018e-01  1.5872674703626988e-01  1.5861168811925086e-01  1.5850382324143994e-01  1.5840361374708667e-01  1.5831131531735002e-01  1.5822700216301361e-01  1.5815059570710580e-01  1.5808189580481466e-01  1.5802061250609412e-01  1.5796639642082569e-01  1.5791886578320660e-01  1.5787762824738855e-01  1.5784229531187416e-01  1.5781248728431962e-01  1.5778782733118690e-01  1.5776792517011085e-01  1.5775235537556720e-01  1.5774064296690862e-01  1.5773227916566074e-01  1.5772679391970740e-01  1.5772385195696378e-01  2.7877559808683661e-01  2.7877227986218123e-01  1.5771801331682578e-01  1.5771831567334280e-01  1.5771883554483260e-01  1.5771961591830980e-01  1.5772071879143951e-01  1.5772221956651458e-01  1.5772420279255084e-01  1.5772676147257153e-01  1.5772999829308185e-01  1.5773402726440261e-01  1.5773897481068683e-01  1.5774497978843313e-01  1.5775219219110426e-01  1.5776077047005957e-01  1.5777087753003627e-01  1.5778267558128117e-01  1.5779632016679626e-01  1.5781195382796251e-01  1.5782970000598051e-01  1.5784965786860408e-01  1.5787189875874241e-01  1.5789646485566466e-01  1.5792337042049542e-01  1.5795260568707514e-01  1.5798414309834388e-01  1.5801794523631987e-01  1.5805397351511227e-01  1.5809219655570350e-01  1.5813259716448330e-01  1.5817517699186229e-01  1.5821995823008095e-01  1.5826698207979242e-01  1.5831630411200215e-01  1.5836798700419347e-01  1.5842209137996821e-01  1.5847866560731230e-01  1.5853773542312832e-01  1.5859929418280888e-01  1.5866329441690605e-01  1.5872964123436450e-01  1.5879818795213452e-01  1.5886873415372441e-01  1.5894102618053849e-01  1.5901475984438179e-01  1.5908958492461839e-01  1.5916511080481816e-01  1.5924091243798094e-01  1.5931653574213969e-01  1.5939150155433579e-01  1.5946530743509829e-01  1.5953742692413161e-01  1.5960730628017164e-01  1.5967435924165077e-01  1.5973796083919892e-01  1.5979744167400189e-01  1.5985208425914449e-01  1.5990112296610307e-01  1.5994374873521042e-01  1.5997911898994199e-01  1.6000637270059026e-01  1.6002465133185556e-01  1.6003312888608626e-01  1.6003105443482099e-01  1.6001780545437980e-01  1.5999294408114620e-01  1.5995626670450769e-01  1.5990783978654366e-01  1.5984801807571603e-01  1.5977744391105597e-01  1.5969702804245869e-01  1.5960791398661933e-01  1.5951142969037735e-01  1.5940903164722037e-01  1.5930224690516626e-01  1.5919261750270028e-01  1.5908165030114230e-01  1.5897077366949491e-01  1.5886130151601768e-01  1.5875440485657355e-01  1.5865109124577798e-01  1.5855219260296571e-01  1.5845836191884599e-01  1.5837007889887064e-01  1.5828766384976989e-01  1.5821129827726516e-01  1.5814105000458342e-01  1.5807690028230417e-01  1.5801877028986491e-01  1.5796654446542310e-01  1.5792008811652228e-01  1.5787925679570408e-01  1.5784389525544087e-01  1.5781382497771745e-01  1.5778882208640024e-01  1.5776859282577177e-01  1.5775276255962334e-01  1.5774090626198367e-01  1.5773265738137193e-01  1.5772788399865537e-01  2.7877794752864204e-01  2.7877264558419662e-01  1.5771836788343291e-01  1.5771881717350617e-01  1.5771954600786992e-01  1.5772059014170259e-01  1.5772201114555370e-01  1.5772388706353255e-01  1.5772630630066570e-01  1.5772936571526158e-01  1.5773317088729943e-01  1.5773783694492968e-01  1.5774348888879525e-01  1.5775026078655049e-01  1.5775829351512755e-01  1.5776773094850699e-01  1.5777871467210269e-01  1.5779137748476779e-01  1.5780583614139315e-01  1.5782218398459505e-01  1.5784048428829689e-01  1.5786076524324127e-01  1.5788301748839265e-01  1.5790719489796673e-01  1.5793321898427479e-01  1.5796098681103102e-01  1.5799038179337538e-01  1.5802128628018608e-01  1.5805359446887821e-01  1.5808722406823572e-01  1.5812212522801683e-01  1.5815828557593301e-01  1.5819573070078682e-01  1.5823452002424687e-01  1.5827473860552324e-01  1.5831648590226083e-01  1.5835986278436442e-01  1.5840495814968911e-01  1.5845183636834165e-01  1.5850052655912947e-01  1.5855101444335173e-01  1.5860323726678954e-01  1.5865708204187187e-01  1.5871238713265504e-01  1.5876894697516519e-01  1.5882651949003634e-01  1.5888483550306781e-01  1.5894360926699336e-01  1.5900254899248267e-01  1.5906136618239980e-01  1.5911978255768805e-01  1.5917753349250283e-01  1.5923436715674280e-01  1.5929003898654404e-01  1.5934430162816876e-01  1.5939689105794180e-01  1.5944751006873570e-01  1.5949581065727758e-01  1.5954137704457394e-01  1.5958371089614240e-01  1.5962221961367279e-01  1.5965620830272248e-01  1.5968487819342617e-01  1.5970733981070123e-01  1.5972264997303487e-01  1.5972987230589661e-01  1.5972815005920057e-01  1.5971677767690498e-01  1.5969526167887596e-01  1.5966336548713608e-01  1.5962113523313948e-01  1.5956890490090453e-01  1.5950728091649002e-01  1.5943710907191938e-01  1.5935942929250596e-01  1.5927542470748118e-01  1.5918637043171791e-01  1.5909358529948742e-01  1.5899838774699232e-01  1.5890205594490747e-01  1.5880579229360248e-01  1.5871069311872216e-01  1.5861772518083739e-01  1.5852771085584383e-01  1.5844132330961952e-01  1.5835909177540217e-01  1.5828141557341308e-01  1.5820858432818272e-01  1.5814080124585961e-01  1.5807820625547581e-01  1.5802089601876490e-01  1.5796893803576209e-01  1.5792237632271952e-01  1.5788122675284674e-01  1.5784546175835090e-01  1.5781498743268435e-01  1.5778962190102533e-01  1.5776909296988423e-01  1.5775308661756016e-01  1.5774139478559968e-01  1.5773419576598594e-01  2.7878169351056264e-01  2.7877322311727681e-01  1.5771888448848370e-01  1.5771950596470954e-01  1.5772047349303797e-01  1.5772181038741745e-01  1.5772357458008285e-01  1.5772584445438989e-01  1.5772871117696416e-01  1.5773227577766466e-01  1.5773664845635574e-01  1.5774194848991341e-01  1.5774830365810250e-01  1.5775584848383001e-01  1.5776472087906929e-01  1.5777505703944458e-01  1.5778698466668878e-01  1.5780061484252009e-01  1.5781603314266612e-01  1.5783329085102715e-01  1.5785239737799800e-01  1.5787331513489467e-01  1.5789595805605883e-01  1.5792019465137980e-01  1.5794585595387545e-01  1.5797274805852540e-01  1.5800066821995132e-01  1.5802942282247462e-01  1.5805884510369886e-01  1.5808881040662615e-01  1.5811924697811364e-01  1.5815014087987608e-01  1.5818153436776938e-01  1.5821351801590183e-01  1.5824621773217620e-01  1.5827977843329763e-01  1.5831434640376543e-01  1.5835005226724125e-01  1.5838699616098140e-01  1.5842523626371696e-01  1.5846478139252304e-01  1.5850558800773454e-01  1.5854756165350387e-01  1.5859056259515639e-01  1.5863441517061397e-01  1.5867892013696877e-01  1.5872386905433683e-01  1.5876905953694853e-01  1.5881431002140600e-01  1.5885947258951366e-01  1.5890444237430806e-01  1.5894916219687949e-01  1.5899362134932943e-01  1.5903784785261593e-01  1.5908189404390660e-01  1.5912581591743016e-01  1.5916964713681347e-01  1.5921336901611624e-01  1.5925687815693493e-01  1.5929995337518607e-01  1.5934222254467401e-01  1.5938312978856894e-01  1.5942190806003398e-01  1.5945757369089719e-01  1.5948896124426298e-01  1.5951479900459264e-01  1.5953380642856510e-01  1.5954479306252153e-01  1.5954674675524416e-01  1.5953890465323423e-01  1.5952080274019986e-01  1.5949230026262023e-01  1.5945357738155247e-01  1.5940510892917747e-01  1.5934762173191580e-01  1.5928204457909373e-01  1.5920945800692080e-01  1.5913104735113470e-01  1.5904805921608178e-01  1.5896175999326984e-01  1.5887339553716598e-01  1.5878415284325578e-01  1.5869512638537275e-01  1.5860729260823270e-01  1.5852149550934960e-01  1.5843844439638224e-01  1.5835872253807737e-01  1.5828280355821953e-01  1.5821107162946105e-01  1.5814384169186924e-01  1.5808137652656756e-01  1.5802389809442516e-01  1.5797159102508582e-01  1.5792459693364153e-01  1.5788300011704920e-01  1.5784680881608179e-01  1.5781594210077682e-01  1.5779024128328931e-01  1.5776953899779364e-01  1.5775384353828364e-01  1.5774372745048137e-01  2.7878752950989982e-01  2.7877410865772545e-01  1.5771961298171858e-01  1.5772041468148543e-01  1.5772163350606244e-01  1.5772327678328446e-01  1.5772539536864005e-01  1.5772806513945309e-01  1.5773137836355419e-01  1.5773543996929787e-01  1.5774036586936674e-01  1.5774628183675710e-01  1.5775332189586333e-01  1.5776162546501535e-01  1.5777133274528082e-01  1.5778257812014795e-01  1.5779548161743440e-01  1.5781013880159739e-01  1.5782660982632085e-01  1.5784490875841137e-01  1.5786499464280662e-01  1.5788676600488083e-01  1.57910060380