<?xml version="1.0"?>
<VTKFile type="UnstructuredGrid"  version="0.1"  >
<UnstructuredGrid>
<Piece  NumberOfPoints="5151" NumberOfCells="10000">
<Points>
<DataArray  type="Float64"  NumberOfComponents="3"  format="ascii">0 0 0  0.02 0 0  0.04 0 0  0.06 0 0  0.08 0 0  0.1 0 0  0.12 0 0  0.14 0 0  0.16 0 0  0.18 0 0  0.2 0 0  0.22 0 0  0.24 0 0  0.26 0 0  0.28 0 0  0.3 0 0  0.32 0 0  0.34 0 0  0.36 0 0  0.38 0 0  0.4 0 0  0.42 0 0  0.44 0 0  0.46 0 0  0.48 0 0  0.5 0 0  0.52 0 0  0.54 0 0  0.5600000000000001 0 0  0.58 0 0  0.6 0 0  0.62 0 0  0.64 0 0  0.66 0 0  0.68 0 0  0.7 0 0  0.72 0 0  0.74 0 0  0.76 0 0  0.78 0 0  0.8 0 0  0.82 0 0  0.84 0 0  0.86 0 0  0.88 0 0  0.9 0 0  0.92 0 0  0.9399999999999999 0 0  0.96 0 0  0.98 0 0  1 0 0  1.02 0 0  1.04 0 0  1.06 0 0  1.08 0 0  1.1 0 0  1.12 0 0  1.14 0 0  1.16 0 0  1.18 0 0  1.2 0 0  1.22 0 0  1.24 0 0  1.26 0 0  1.28 0 0  1.3 0 0  1.32 0 0  1.34 0 0  1.36 0 0  1.38 0 0  1.4 0 0  1.42 0 0  1.44 0 0  1.46 0 0  1.48 0 0  1.5 0 0  1.52 0 0  1.54 0 0  1.56 0 0  1.58 0 0  1.6 0 0  1.62 0 0  1.64 0 0  1.66 0 0  1.68 0 0  1.7 0 0  1.72 0 0  1.74 0 0  1.76 0 0  1.78 0 0  1.8 0 0  1.82 0 0  1.84 0 0  1.86 0 0  1.88 0 0  1.9 0 0  1.92 0 0  1.94 0 0  1.96 0 0  1.98 0 0  2 0 0  0 0.02 0  0.02 0.02 0  0.04 0.02 0  0.06 0.02 0  0.08 0.02 0  0.1 0.02 0  0.12 0.02 0  0.14 0.02 0  0.16 0.02 0  0.18 0.02 0  0.2 0.02 0  0.22 0.02 0  0.24 0.02 0  0.26 0.02 0  0.28 0.02 0  0.3 0.02 0  0.32 0.02 0  0.34 0.02 0  0.36 0.02 0  0.38 0.02 0  0.4 0.02 0  0.42 0.02 0  0.44 0.02 0  0.46 0.02 0  0.48 0.02 0  0.5 0.02 0  0.52 0.02 0  0.54 0.02 0  0.5600000000000001 0.02 0  0.58 0.02 0  0.6 0.02 0  0.62 0.02 0  0.64 0.02 0  0.66 0.02 0  0.68 0.02 0  0.7 0.02 0  0.72 0.02 0  0.74 0.02 0  0.76 0.02 0  0.78 0.02 0  0.8 0.02 0  0.82 0.02 0  0.84 0.02 0  0.86 0.02 0  0.88 0.02 0  0.9 0.02 0  0.92 0.02 0  0.9399999999999999 0.02 0  0.96 0.02 0  0.98 0.02 0  1 0.02 0  1.02 0.02 0  1.04 0.02 0  1.06 0.02 0  1.08 0.02 0  1.1 0.02 0  1.12 0.02 0  1.14 0.02 0  1.16 0.02 0  1.18 0.02 0  1.2 0.02 0  1.22 0.02 0  1.24 0.02 0  1.26 0.02 0  1.28 0.02 0  1.3 0.02 0  1.32 0.02 0  1.34 0.02 0  1.36 0.02 0  1.38 0.02 0  1.4 0.02 0  1.42 0.02 0  1.44 0.02 0  1.46 0.02 0  1.48 0.02 0  1.5 0.02 0  1.52 0.02 0  1.54 0.02 0  1.56 0.02 0  1.58 0.02 0  1.6 0.02 0  1.62 0.02 0  1.64 0.02 0  1.66 0.02 0  1.68 0.02 0  1.7 0.02 0  1.72 0.02 0  1.74 0.02 0  1.76 0.02 0  1.78 0.02 0  1.8 0.02 0  1.82 0.02 0  1.84 0.02 0  1.86 0.02 0  1.88 0.02 0  1.9 0.02 0  1.92 0.02 0  1.94 0.02 0  1.96 0.02 0  1.98 0.02 0  2 0.02 0  0 0.04 0  0.02 0.04 0  0.04 0.04 0  0.06 0.04 0  0.08 0.04 0  0.1 0.04 0  0.12 0.04 0  0.14 0.04 0  0.16 0.04 0  0.18 0.04 0  0.2 0.04 0  0.22 0.04 0  0.24 0.04 0  0.26 0.04 0  0.28 0.04 0  0.3 0.04 0  0.32 0.04 0  0.34 0.04 0  0.36 0.04 0  0.38 0.04 0  0.4 0.04 0  0.42 0.04 0  0.44 0.04 0  0.46 0.04 0  0.48 0.04 0  0.5 0.04 0  0.52 0.04 0  0.54 0.04 0  0.5600000000000001 0.04 0  0.58 0.04 0  0.6 0.04 0  0.62 0.04 0  0.64 0.04 0  0.66 0.04 0  0.68 0.04 0  0.7 0.04 0  0.72 0.04 0  0.74 0.04 0  0.76 0.04 0  0.78 0.04 0  0.8 0.04 0  0.82 0.04 0  0.84 0.04 0  0.86 0.04 0  0.88 0.04 0  0.9 0.04 0  0.92 0.04 0  0.9399999999999999 0.04 0  0.96 0.04 0  0.98 0.04 0  1 0.04 0  1.02 0.04 0  1.04 0.04 0  1.06 0.04 0  1.08 0.04 0  1.1 0.04 0  1.12 0.04 0  1.14 0.04 0  1.16 0.04 0  1.18 0.04 0  1.2 0.04 0  1.22 0.04 0  1.24 0.04 0  1.26 0.04 0  1.28 0.04 0  1.3 0.04 0  1.32 0.04 0  1.34 0.04 0  1.36 0.04 0  1.38 0.04 0  1.4 0.04 0  1.42 0.04 0  1.44 0.04 0  1.46 0.04 0  1.48 0.04 0  1.5 0.04 0  1.52 0.04 0  1.54 0.04 0  1.56 0.04 0  1.58 0.04 0  1.6 0.04 0  1.62 0.04 0  1.64 0.04 0  1.66 0.04 0  1.68 0.04 0  1.7 0.04 0  1.72 0.04 0  1.74 0.04 0  1.76 0.04 0  1.78 0.04 0  1.8 0.04 0  1.82 0.04 0  1.84 0.04 0  1.86 0.04 0  1.88 0.04 0  1.9 0.04 0  1.92 0.04 0  1.94 0.04 0  1.96 0.04 0  1.98 0.04 0  2 0.04 0  0 0.06 0  0.02 0.06 0  0.04 0.06 0  0.06 0.06 0  0.08 0.06 0  0.1 0.06 0  0.12 0.06 0  0.14 0.06 0  0.16 0.06 0  0.18 0.06 0  0.2 0.06 0  0.22 0.06 0  0.24 0.06 0  0.26 0.06 0  0.28 0.06 0  0.3 0.06 0  0.32 0.06 0  0.34 0.06 0  0.36 0.06 0  0.38 0.06 0  0.4 0.06 0  0.42 0.06 0  0.44 0.06 0  0.46 0.06 0  0.48 0.06 0  0.5 0.06 0  0.52 0.06 0  0.54 0.06 0  0.5600000000000001 0.06 0  0.58 0.06 0  0.6 0.06 0  0.62 0.06 0  0.64 0.06 0  0.66 0.06 0  0.68 0.06 0  0.7 0.06 0  0.72 0.06 0  0.74 0.06 0  0.76 0.06 0  0.78 0.06 0  0.8 0.06 0  0.82 0.06 0  0.84 0.06 0  0.86 0.06 0  0.88 0.06 0  0.9 0.06 0  0.92 0.06 0  0.9399999999999999 0.06 0  0.96 0.06 0  0.98 0.06 0  1 0.06 0  1.02 0.06 0  1.04 0.06 0  1.06 0.06 0  1.08 0.06 0  1.1 0.06 0  1.12 0.06 0  1.14 0.06 0  1.16 0.06 0  1.18 0.06 0  1.2 0.06 0  1.22 0.06 0  1.24 0.06 0  1.26 0.06 0  1.28 0.06 0  1.3 0.06 0  1.32 0.06 0  1.34 0.06 0  1.36 0.06 0  1.38 0.06 0  1.4 0.06 0  1.42 0.06 0  1.44 0.06 0  1.46 0.06 0  1.48 0.06 0  1.5 0.06 0  1.52 0.06 0  1.54 0.06 0  1.56 0.06 0  1.58 0.06 0  1.6 0.06 0  1.62 0.06 0  1.64 0.06 0  1.66 0.06 0  1.68 0.06 0  1.7 0.06 0  1.72 0.06 0  1.74 0.06 0  1.76 0.06 0  1.78 0.06 0  1.8 0.06 0  1.82 0.06 0  1.84 0.06 0  1.86 0.06 0  1.88 0.06 0  1.9 0.06 0  1.92 0.06 0  1.94 0.06 0  1.96 0.06 0  1.98 0.06 0  2 0.06 0  0 0.08 0  0.02 0.08 0  0.04 0.08 0  0.06 0.08 0  0.08 0.08 0  0.1 0.08 0  0.12 0.08 0  0.14 0.08 0  0.16 0.08 0  0.18 0.08 0  0.2 0.08 0  0.22 0.08 0  0.24 0.08 0  0.26 0.08 0  0.28 0.08 0  0.3 0.08 0  0.32 0.08 0  0.34 0.08 0  0.36 0.08 0  0.38 0.08 0  0.4 0.08 0  0.42 0.08 0  0.44 0.08 0  0.46 0.08 0  0.48 0.08 0  0.5 0.08 0  0.52 0.08 0  0.54 0.08 0  0.5600000000000001 0.08 0  0.58 0.08 0  0.6 0.08 0  0.62 0.08 0  0.64 0.08 0  0.66 0.08 0  0.68 0.08 0  0.7 0.08 0  0.72 0.08 0  0.74 0.08 0  0.76 0.08 0  0.78 0.08 0  0.8 0.08 0  0.82 0.08 0  0.84 0.08 0  0.86 0.08 0  0.88 0.08 0  0.9 0.08 0  0.92 0.08 0  0.9399999999999999 0.08 0  0.96 0.08 0  0.98 0.08 0  1 0.08 0  1.02 0.08 0  1.04 0.08 0  1.06 0.08 0  1.08 0.08 0  1.1 0.08 0  1.12 0.08 0  1.14 0.08 0  1.16 0.08 0  1.18 0.08 0  1.2 0.08 0  1.22 0.08 0  1.24 0.08 0  1.26 0.08 0  1.28 0.08 0  1.3 0.08 0  1.32 0.08 0  1.34 0.08 0  1.36 0.08 0  1.38 0.08 0  1.4 0.08 0  1.42 0.08 0  1.44 0.08 0  1.46 0.08 0  1.48 0.08 0  1.5 0.08 0  1.52 0.08 0  1.54 0.08 0  1.56 0.08 0  1.58 0.08 0  1.6 0.08 0  1.62 0.08 0  1.64 0.08 0  1.66 0.08 0  1.68 0.08 0  1.7 0.08 0  1.72 0.08 0  1.74 0.08 0  1.76 0.08 0  1.78 0.08 0  1.8 0.08 0  1.82 0.08 0  1.84 0.08 0  1.86 0.08 0  1.88 0.08 0  1.9 0.08 0  1.92 0.08 0  1.94 0.08 0  1.96 0.08 0  1.98 0.08 0  2 0.08 0  0 0.1 0  0.02 0.1 0  0.04 0.1 0  0.06 0.1 0  0.08 0.1 0  0.1 0.1 0  0.12 0.1 0  0.14 0.1 0  0.16 0.1 0  0.18 0.1 0  0.2 0.1 0  0.22 0.1 0  0.24 0.1 0  0.26 0.1 0  0.28 0.1 0  0.3 0.1 0  0.32 0.1 0  0.34 0.1 0  0.36 0.1 0  0.38 0.1 0  0.4 0.1 0  0.42 0.1 0  0.44 0.1 0  0.46 0.1 0  0.48 0.1 0  0.5 0.1 0  0.52 0.1 0  0.54 0.1 0  0.5600000000000001 0.1 0  0.58 0.1 0  0.6 0.1 0  0.62 0.1 0  0.64 0.1 0  0.66 0.1 0  0.68 0.1 0  0.7 0.1 0  0.72 0.1 0  0.74 0.1 0  0.76 0.1 0  0.78 0.1 0  0.8 0.1 0  0.82 0.1 0  0.84 0.1 0  0.86 0.1 0  0.88 0.1 0  0.9 0.1 0  0.92 0.1 0  0.9399999999999999 0.1 0  0.96 0.1 0  0.98 0.1 0  1 0.1 0  1.02 0.1 0  1.04 0.1 0  1.06 0.1 0  1.08 0.1 0  1.1 0.1 0  1.12 0.1 0  1.14 0.1 0  1.16 0.1 0  1.18 0.1 0  1.2 0.1 0  1.22 0.1 0  1.24 0.1 0  1.26 0.1 0  1.28 0.1 0  1.3 0.1 0  1.32 0.1 0  1.34 0.1 0  1.36 0.1 0  1.38 0.1 0  1.4 0.1 0  1.42 0.1 0  1.44 0.1 0  1.46 0.1 0  1.48 0.1 0  1.5 0.1 0  1.52 0.1 0  1.54 0.1 0  1.56 0.1 0  1.58 0.1 0  1.6 0.1 0  1.62 0.1 0  1.64 0.1 0  1.66 0.1 0  1.68 0.1 0  1.7 0.1 0  1.72 0.1 0  1.74 0.1 0  1.76 0.1 0  1.78 0.1 0  1.8 0.1 0  1.82 0.1 0  1.84 0.1 0  1.86 0.1 0  1.88 0.1 0  1.9 0.1 0  1.92 0.1 0  1.94 0.1 0  1.96 0.1 0  1.98 0.1 0  2 0.1 0  0 0.12 0  0.02 0.12 0  0.04 0.12 0  0.06 0.12 0  0.08 0.12 0  0.1 0.12 0  0.12 0.12 0  0.14 0.12 0  0.16 0.12 0  0.18 0.12 0  0.2 0.12 0  0.22 0.12 0  0.24 0.12 0  0.26 0.12 0  0.28 0.12 0  0.3 0.12 0  0.32 0.12 0  0.34 0.12 0  0.36 0.12 0  0.38 0.12 0  0.4 0.12 0  0.42 0.12 0  0.44 0.12 0  0.46 0.12 0  0.48 0.12 0  0.5 0.12 0  0.52 0.12 0  0.54 0.12 0  0.5600000000000001 0.12 0  0.58 0.12 0  0.6 0.12 0  0.62 0.12 0  0.64 0.12 0  0.66 0.12 0  0.68 0.12 0  0.7 0.12 0  0.72 0.12 0  0.74 0.12 0  0.76 0.12 0  0.78 0.12 0  0.8 0.12 0  0.82 0.12 0  0.84 0.12 0  0.86 0.12 0  0.88 0.12 0  0.9 0.12 0  0.92 0.12 0  0.9399999999999999 0.12 0  0.96 0.12 0  0.98 0.12 0  1 0.12 0  1.02 0.12 0  1.04 0.12 0  1.06 0.12 0  1.08 0.12 0  1.1 0.12 0  1.12 0.12 0  1.14 0.12 0  1.16 0.12 0  1.18 0.12 0  1.2 0.12 0  1.22 0.12 0  1.24 0.12 0  1.26 0.12 0  1.28 0.12 0  1.3 0.12 0  1.32 0.12 0  1.34 0.12 0  1.36 0.12 0  1.38 0.12 0  1.4 0.12 0  1.42 0.12 0  1.44 0.12 0  1.46 0.12 0  1.48 0.12 0  1.5 0.12 0  1.52 0.12 0  1.54 0.12 0  1.56 0.12 0  1.58 0.12 0  1.6 0.12 0  1.62 0.12 0  1.64 0.12 0  1.66 0.12 0  1.68 0.12 0  1.7 0.12 0  1.72 0.12 0  1.74 0.12 0  1.76 0.12 0  1.78 0.12 0  1.8 0.12 0  1.82 0.12 0  1.84 0.12 0  1.86 0.12 0  1.88 0.12 0  1.9 0.12 0  1.92 0.12 0  1.94 0.12 0  1.96 0.12 0  1.98 0.12 0  2 0.12 0  0 0.14 0  0.02 0.14 0  0.04 0.14 0  0.06 0.14 0  0.08 0.14 0  0.1 0.14 0  0.12 0.14 0  0.14 0.14 0  0.16 0.14 0  0.18 0.14 0  0.2 0.14 0  0.22 0.14 0  0.24 0.14 0  0.26 0.14 0  0.28 0.14 0  0.3 0.14 0  0.32 0.14 0  0.34 0.14 0  0.36 0.14 0  0.38 0.14 0  0.4 0.14 0  0.42 0.14 0  0.44 0.14 0  0.46 0.14 0  0.48 0.14 0  0.5 0.14 0  0.52 0.14 0  0.54 0.14 0  0.5600000000000001 0.14 0  0.58 0.14 0  0.6 0.14 0  0.62 0.14 0  0.64 0.14 0  0.66 0.14 0  0.68 0.14 0  0.7 0.14 0  0.72 0.14 0  0.74 0.14 0  0.76 0.14 0  0.78 0.14 0  0.8 0.14 0  0.82 0.14 0  0.84 0.14 0  0.86 0.14 0  0.88 0.14 0  0.9 0.14 0  0.92 0.14 0  0.9399999999999999 0.14 0  0.96 0.14 0  0.98 0.14 0  1 0.14 0  1.02 0.14 0  1.04 0.14 0  1.06 0.14 0  1.08 0.14 0  1.1 0.14 0  1.12 0.14 0  1.14 0.14 0  1.16 0.14 0  1.18 0.14 0  1.2 0.14 0  1.22 0.14 0  1.24 0.14 0  1.26 0.14 0  1.28 0.14 0  1.3 0.14 0  1.32 0.14 0  1.34 0.14 0  1.36 0.14 0  1.38 0.14 0  1.4 0.14 0  1.42 0.14 0  1.44 0.14 0  1.46 0.14 0  1.48 0.14 0  1
[...]
<PointData  Scalars="sols[i]"> 
<DataArray  type="Float64"  Name="sols[i]"  format="ascii">3.0079439086866930e-02  2.0209748365619729e-02  2.0209748365884472e-02  2.0209748366365118e-02  2.0209748367194191e-02  2.0209748368638154e-02  2.0209748371195550e-02  2.0209748375697376e-02  2.0209748383387110e-02  2.0209748395975884e-02  2.0209748415675792e-02  2.0209748445216141e-02  2.0209748487846860e-02  2.0209748547330965e-02  2.0209748627927744e-02  2.0209748734368017e-02  2.0209748871823904e-02  2.0209749045874220e-02  2.0209749262468428e-02  2.0209749527891448e-02  2.0209749848730280e-02  2.0209750231843703e-02  2.0209750684335864e-02  2.0209751213532360e-02  2.0209751826958881e-02  2.0209752532322295e-02  2.0209753337493520e-02  2.0209754250493758e-02  2.0209755279485750e-02  2.0209756432771522e-02  2.0209757718799376e-02  2.0209759146178209e-02  2.0209760723697606e-02  2.0209762460346649e-02  2.0209764365320366e-02  2.0209766447998552e-02  2.0209768717879682e-02  2.0209771184447646e-02  2.0209773856951111e-02  2.0209776744074051e-02  2.0209779853478028e-02  2.0209783191199822e-02  2.0209786760894612e-02  2.0209790562919518e-02  2.0209794593266217e-02  2.0209798842363402e-02  2.0209803293788214e-02  2.0209807922947159e-02  2.0209812695813477e-02  2.0209817567830843e-02  2.0209822483119703e-02  2.0209827374136069e-02  2.0209832161934456e-02  2.0209836757170460e-02  2.0209841061941222e-02  2.0209844972505223e-02  2.0209848382849931e-02  2.0209851188991587e-02  2.0209853293809171e-02  2.0209854612131511e-02  2.0209855075743494e-02  2.0209854637934975e-02  2.0209853277202913e-02  2.0209850999738967e-02  2.0209847840394188e-02  2.0209843861921158e-02  2.0209839152456843e-02  2.0209833821403275e-02  2.0209827994046685e-02  2.0209821805391867e-02  2.0209815393759604e-02  2.0209808894676835e-02  2.0209802435509027e-02  2.0209796131143241e-02  2.0209790080874854e-02  2.0209784366510171e-02  2.0209779051589029e-02  2.0209774181563455e-02  2.0209769784735470e-02  2.0209765873750524e-02  2.0209762447454486e-02  2.0209759492945061e-02  2.0209756987677109e-02  2.0209754901518155e-02  2.0209753198678151e-02  2.0209751839475598e-02  2.0209750781926671e-02  2.0209749983164806e-02  2.0209749400712615e-02  2.0209748993632835e-02  2.0209748723582152e-02  2.0209748555780567e-02  2.0209748459887746e-02  2.0209748410744743e-02  2.0209748388890825e-02  2.0209748380711504e-02  2.0209748378028695e-02  2.0209748376995056e-02  2.0209748376362545e-02  2.0209748375798618e-02  5.8735172854212245e-02  2.0209748365605039e-02  1.0184862319632417e-02  1.0184862319838676e-02  1.0184862320278579e-02  1.0184862321101971e-02  1.0184862322564086e-02  1.0184862325080531e-02  1.0184862329296213e-02  1.0184862336156007e-02  1.0184862346972549e-02  1.0184862363490197e-02  1.0184862387944825e-02  1.0184862423118522e-02  1.0184862472386626e-02  1.0184862539753075e-02  1.0184862629869621e-02  1.0184862748034271e-02  1.0184862900164765e-02  1.0184863092744169e-02  1.0184863332738162e-02  1.0184863627485326e-02  1.0184863984564960e-02  1.0184864411650094e-02  1.0184864916355132e-02  1.0184865506089659e-02  1.0184866187930663e-02  1.0184866968524189e-02  1.0184867854025361e-02  1.0184868850082514e-02  1.0184869961865958e-02  1.0184871194137742e-02  1.0184872551352763e-02  1.0184874037777611e-02  1.0184875657610490e-02  1.0184877415082876e-02  1.0184879314523675e-02  1.0184881360368204e-02  1.0184883557096024e-02  1.0184885909085280e-02  1.0184888420375293e-02  1.0184891094331992e-02  1.0184893933214976e-02  1.0184896937648968e-02  1.0184900106005718e-02  1.0184903433707548e-02  1.0184906912469354e-02  1.0184910529502100e-02  1.0184914266709314e-02  1.0184918099918790e-02  1.0184921998202180e-02  1.0184925923347316e-02  1.0184929829558299e-02  1.0184933663463035e-02  1.0184937364507374e-02  1.0184940865804688e-02  1.0184944095490388e-02  1.0184946978601814e-02  1.0184949439466514e-02  1.0184951404540218e-02  1.0184952805589575e-02  1.0184953583072563e-02  1.0184953689527957e-02  1.0184953092745065e-02  1.0184951778455006e-02  1.0184949752267386e-02  1.0184947040591679e-02  1.0184943690352709e-02  1.0184939767432209e-02  1.0184935353916524e-02  1.0184930544370929e-02  1.0184925441468345e-02  1.0184920151353499e-02  1.0184914779121370e-02  1.0184909424735895e-02  1.0184904179625451e-02  1.0184899124092272e-02  1.0184894325578293e-02  1.0184889837754039e-02  1.0184885700343540e-02  1.0184881939566626e-02  1.0184878569065355e-02  1.0184875591180299e-02  1.0184872998449911e-02  1.0184870775221830e-02  1.0184868899282423e-02  1.0184867343433306e-02  1.0184866076967069e-02  1.0184865067014491e-02  1.0184864279755165e-02  1.0184863681496747e-02  1.0184863239635304e-02  1.0184862923509189e-02  1.0184862705150708e-02  1.0184862559924426e-02  1.0184862467019516e-02  1.0184862409743988e-02  1.0184862375555369e-02  1.0184862355771946e-02  1.0184862344932627e-02  1.0184862339751792e-02  2.0209748375794249e-02  2.0209748365825151e-02  1.0184862319790555e-02  1.0184862320038419e-02  1.0184862320638010e-02  1.0184862321799781e-02  1.0184862323848909e-02  1.0184862327252370e-02  1.0184862332655645e-02  1.0184862340926887e-02  1.0184862353204316e-02  1.0184862370943248e-02  1.0184862395959778e-02  1.0184862430469316e-02  1.0184862477117602e-02  1.0184862539001537e-02  1.0184862619677028e-02  1.0184862723151309e-02  1.0184862853857378e-02  1.0184863016609289e-02  1.0184863216538931e-02  1.0184863459015783e-02  1.0184863749553415e-02  1.0184864093708525e-02  1.0184864496979081e-02  1.0184864964709175e-02  1.0184865502008875e-02  1.0184866113695519e-02  1.0184866804261916e-02  1.0184867577874387e-02  1.0184868438399993e-02  1.0184869389459783e-02  1.0184870434500642e-02  1.0184871576875851e-02  1.0184872819922697e-02  1.0184874167023465e-02  1.0184875621636520e-02  1.0184877187285375e-02  1.0184878867494626e-02  1.0184880665664524e-02  1.0184882584878657e-02  1.0184884627641487e-02  1.0184886795545620e-02  1.0184889088872178e-02  1.0184891506130233e-02  1.0184894043545317e-02  1.0184896694511395e-02  1.0184899449024554e-02  1.0184902293122380e-02  1.0184905208359806e-02  1.0184908171358323e-02  1.0184911153472771e-02  1.0184914120625423e-02  1.0184917033358287e-02  1.0184919847152651e-02  1.0184922513056815e-02  1.0184924978649892e-02  1.0184927189351737e-02  1.0184929090067241e-02  1.0184930627130559e-02  1.0184931750489623e-02  1.0184932416048138e-02  1.0184932588053232e-02  1.0184932241381450e-02  1.0184931363541802e-02  1.0184929956183605e-02  1.0184928035895687e-02  1.0184925634136574e-02  1.0184922796237315e-02  1.0184919579537316e-02  1.0184916050818116e-02  1.0184912283271945e-02  1.0184908353270343e-02  1.0184904337189252e-02  1.0184900308507902e-02  1.0184896335338920e-02  1.0184892478485315e-02  1.0184888790061523e-02  1.0184885312668899e-02  1.0184882079081688e-02  1.0184879112377202e-02  1.0184876426431160e-02  1.0184874026694414e-02  1.0184871911167657e-02  1.0184870071497504e-02  1.0184868494125022e-02  1.0184867161430550e-02  1.0184866052833093e-02  1.0184865145814431e-02  1.0184864416851114e-02  1.0184863842245560e-02  1.0184863398851478e-02  1.0184863064688382e-02  1.0184862819435911e-02  1.0184862644795758e-02  1.0184862524712828e-02  1.0184862445469005e-02  1.0184862395699547e-02  1.0184862366414069e-02  1.0184862351034449e-02  1.0184862344886371e-02  2.0209748376343002e-02  2.0209748366209417e-02  1.0184862320116228e-02  1.0184862320514384e-02  1.0184862321453190e-02  1.0184862323192073e-02  1.0184862326113788e-02  1.0184862330733926e-02  1.0184862337709948e-02  1.0184862347861593e-02  1.0184862362199357e-02  1.0184862381955418e-02  1.0184862408612369e-02  1.0184862443926876e-02  1.0184862489946198e-02  1.0184862549015621e-02  1.0184862623775513e-02  1.0184862717146980e-02  1.0184862832305474e-02  1.0184862972642469e-02  1.0184863141716793e-02  1.0184863343197549e-02  1.0184863580801857e-02  1.0184863858231859e-02  1.0184864179115358e-02  1.0184864546954728e-02  1.0184864965088801e-02  1.0184865436670828e-02  1.0184865964664596e-02  1.0184866551859318e-02  1.0184867200901268e-02  1.0184867914339008e-02  1.0184868694676176e-02  1.0184869544424668e-02  1.0184870466150259e-02  1.0184871462501587e-02  1.0184872536213963e-02  1.0184873690080773e-02  1.0184874926885773e-02  1.0184876249291600e-02  1.0184877659681971e-02  1.0184879159956306e-02  1.0184880751278005e-02  1.0184882433780662e-02  1.0184884206238257e-02  1.0184886065708772e-02  1.0184888007163457e-02  1.0184890023116018e-02  1.0184892103269075e-02  1.0184894234198830e-02  1.0184896399101466e-02  1.0184898577627884e-02  1.0184900745834767e-02  1.0184902876277525e-02  1.0184904938266341e-02  1.0184906898299024e-02  1.0184908720675720e-02  1.0184910368292612e-02  1.0184911803606495e-02  1.0184912989761877e-02  1.0184913891874311e-02  1.0184914478464847e-02  1.0184914723021432e-02  1.0184914605621209e-02  1.0184914114489437e-02  1.0184913247301478e-02  1.0184912012000781e-02  1.0184910426953046e-02  1.0184908520372984e-02  1.0184906329091012e-02  1.0184903896822615e-02  1.0184901272144385e-02  1.0184898506371618e-02  1.0184895651497687e-02  1.0184892758312476e-02  1.0184889874774578e-02  1.0184887044680742e-02  1.0184884306651397e-02  1.0184881693433706e-02  1.0184879231510218e-02  1.0184876940990496e-02  1.0184874835754278e-02  1.0184872923807823e-02  1.0184871207809740e-02  1.0184869685721222e-02  1.0184868351534470e-02  1.0184867196036819e-02  1.0184866207574443e-02  1.0184865372784430e-02  1.0184864677271557e-02  1.0184864106210091e-02  1.0184863644853048e-02  1.0184863278931141e-02  1.0184862994924278e-02  1.0184862780195748e-02  1.0184862623001886e-02  1.0184862512439177e-02  1.0184862438459868e-02  1.0184862392143439e-02  1.0184862366317632e-02  1.0184862355631395e-02  2.0209748376958346e-02  2.0209748366841140e-02  1.0184862320688399e-02  1.0184862321382163e-02  1.0184862322853892e-02  1.0184862325401665e-02  1.0184862329456867e-02  1.0184862335582238e-02  1.0184862344461315e-02  1.0184862356902569e-02  1.0184862373854029e-02  1.0184862396421652e-02  1.0184862425885868e-02  1.0184862463713069e-02  1.0184862511560094e-02  1.0184862571270365e-02  1.0184862644861254e-02  1.0184862734502934e-02  1.0184862842489172e-02  1.0184862971201403e-02  1.0184863123068499e-02  1.0184863300524608e-02  1.0184863505968166e-02  1.0184863741725839e-02  1.0184864010024223e-02  1.0184864312971956e-02  1.0184864652554554e-02  1.0184865030642386e-02  1.0184865449011548e-02  1.0184865909376201e-02  1.0184866413429156e-02  1.0184866962887063e-02  1.0184867559534780e-02  1.0184868205263074e-02  1.0184868902094104e-02  1.0184869652188493e-02  1.0184870457828949e-02  1.0184871321376781e-02  1.0184872245198082e-02  1.0184873231557874e-02  1.0184874282482095e-02  1.0184875399587866e-02  1.0184876583884606e-02  1.0184877835551156e-02  1.0184879153695578e-02  1.0184880536106881e-02  1.0184881979009793e-02  1.0184883476834066e-02  1.0184885022011220e-02  1.0184886604813172e-02  1.0184888213247345e-02  1.0184889833023101e-02  1.0184891447601738e-02  1.0184893038334968e-02  1.0184894584687607e-02  1.0184896064528253e-02  1.0184897454462750e-02  1.0184898730184438e-02  1.0184899866829390e-02  1.0184900839358890e-02  1.0184901623040116e-02  1.0184902194139735e-02  1.0184902530932662e-02  1.0184902615054482e-02  1.0184902433094532e-02  1.0184901978157336e-02  1.0184901251015895e-02  1.0184900260544517e-02  1.0184899023334013e-02  1.0184897562631292e-02  1.0184895906885530e-02  1.0184894088186387e-02  1.0184892140789562e-02  1.0184890099818525e-02  1.0184888000154359e-02  1.0184885875488853e-02  1.0184883757514508e-02  1.0184881675238084e-02  1.0184879654419839e-02  1.0184877717150098e-02  1.0184875881576646e-02  1.0184874161791507e-02  1.0184872567876813e-02  1.0184871106098458e-02  1.0184869779227494e-02  1.0184868586959859e-02  1.0184867526401253e-02  1.0184866592583853e-02  1.0184865778981842e-02  1.0184865077996911e-02  1.0184864481387230e-02  1.0184863980614897e-02  1.0184863567088078e-02  1.0184863232278091e-02  1.0184862967705398e-02  1.0184862764820578e-02  1.0184862614867483e-02  1.0184862508900362e-02  1.0184862438211970e-02  1.0184862395397102e-02  1.0184862375235956e-02  2.0209748377987637e-02  2.0209748367879189e-02  1.0184862321619876e-02  1.0184862322780559e-02  1.0184862324981475e-02  1.0184862328553573e-02  1.0184862333975715e-02  1.0184862341858822e-02  1.0184862352923551e-02  1.0184862367995311e-02  1.0184862388009761e-02  1.0184862414021466e-02  1.0184862447210161e-02  1.0184862488881563e-02  1.0184862540460946e-02  1.0184862603478683e-02  1.0184862679547990e-02  1.0184862770336060e-02  1.0184862877530055e-02  1.0184863002800320e-02  1.0184863147764112e-02  1.0184863313952712e-02  1.0184863502785262e-02  1.0184863715552699e-02  1.0184863953413652e-02  1.0184864217403531e-02  1.0184864508457200e-02  1.0184864827443657e-02  1.0184865175210472e-02  1.0184865552634856e-02  1.0184865960676744e-02  1.0184866400429506e-02  1.0184866873162593e-02  1.0184867380350855e-02  1.0184867923686145e-02  1.0184868505067141e-02  1.0184869126564921e-02  1.0184869790363808e-02  1.0184870498677197e-02  1.0184871253639382e-02  1.0184872057175207e-02  1.0184872910849407e-02  1.0184873815699290e-02  1.0184874772056811e-02  1.0184875779367601e-02  1.0184876836016515e-02  1.0184877939170452e-02  1.0184879084648685e-02  1.0184880266831516e-02  1.0184881478619207e-02  1.0184882711452580e-02  1.0184883955405007e-02  1.0184885199348327e-02  1.0184886431179789e-02  1.0184887638075079e-02  1.0184888806705162e-02  1.0184889923332321e-02  1.0184890973700365e-02  1.0184891942677431e-02  1.0184892813714317e-02  1.0184893568339445e-02  1.0184894186057090e-02  1.0184894645013490e-02  1.0184894923628611e-02  1.0184895003061033e-02  1.0184894869941421e-02  1.0184894518520952e-02  1.0184893951510980e-02  1.0184893179431350e-02  1.0184892218888974e-02  1.0184891090503918e-02  1.0184889817096516e-02  1.0184888422426102e-02  1.0184886930467400e-02  1.0184885365043635e-02  1.0184883749605854e-02  1.0184882107005841e-02  1.0184880459192056e-02  1.0184878826827748e-02  1.0184877228872909e-02  1.0184875682187521e-02  1.0184874201210239e-02  1.0184872797752056e-02  1.0184871480925142e-02  1.0184870257208385e-02  1.0184869130632965e-02  1.0184868103059450e-02  1.0184867174512613e-02  1.0184866343537578e-02  1.0184865607544162e-02  1.0184864963109105e-02  1.0184864406208406e-02  1.0184863932354892e-02  1.0184863536622112e-02  1.0184863213551328e-02  1.0184862956971477e-02  1.0184862759821924e-02  1.0184862614154000e-02  1.0184862511602683e-02  1.0184862444730797e-02  1.0184862409090683e-02  2.0209748380695530e-02  2.0209748369596936e-02  1.0184862323064838e-02  1.0184862324852493e-02  1.0184862327953804e-02  1.0184862332729231e-02  1.0184862339706342e-02  1.0184862349543078e-02  1.0184862363001583e-02  1.0184862380940522e-02  1.0184862404315199e-02  1.0184862434178411e-02  1.0184862471677353e-02  1.0184862518044062e-02  1.0184862574578089e-02  1.0184862642621043e-02  1.0184862723523837e-02  1.0184862818608705e-02  1.0184862929128524e-02  1.0184863056226736e-02  1.0184863200902186e-02  1.0184863363982406e-02  1.0184863546109047e-02  1.0184863747738755e-02  1.0184863969160518e-02  1.0184864210529467e-02  1.0184864471915852e-02  1.0184864753365845e-02  1.0184865054970148e-02  1.0184865376935635e-02  1.0184865719653959e-02  1.0184866083761505e-02  1.0184866470184123e-02  1.0184866880161099e-02  1.0184867315244608e-02  1.0184867777272049e-02  1.0184868268311494e-02  1.0184868790582823e-02  1.0184869346357551e-02  1.0184869937840955e-02  1.0184870567040066e-02  1.0184871235620389e-02  1.0184871944755624e-02  1.0184872694977302e-02  1.0184873486032690e-02  1.0184874316761308e-02  1.0184875185001167e-02  1.0184876087535270e-02  1.0184877020090567e-02  1.0184877977404852e-02  1.0184878953378929e-02  1.0184879941329850e-02  1.0184880934348561e-02  1.0184881925733805e-02  1.0184882909422242e-02  1.0184883880262412e-02  1.0184884833908513e-02  1.0184885766084933e-02  1.0184886671063837e-02  1.0184887539469049e-02  1.0184888355967550e-02  1.0184889097838592e-02  1.0184889735446909e-02  1.0184890235228249e-02  1.0184890564935278e-02  1.0184890699754756e-02  1.0184890627080025e-02  1.0184890348019036e-02  1.0184889875261453e-02  1.0184889228655441e-02  1.0184888430551896e-02  1.0184887502465399e-02  1.0184886463565464e-02  1.0184885330673923e-02  1.0184884119083682e-02  1.0184882843549105e-02  1.0184881519028237e-02  1.0184880161007012e-02  1.0184878785419377e-02  1.0184877408275303e-02  1.0184876045138427e-02  1.0184874710582773e-02  1.0184873417726186e-02  1.0184872177899713e-02  1.0184871000477616e-02  1.0184869892860191e-02  1.0184868860580436e-02  1.0184867907494564e-02  1.0184867036013321e-02  1.0184866247336260e-02  1.0184865541657002e-02  1.0184864918313153e-02  1.0184864375859366e-02  1.0184863912048040e-02  1.0184863523715604e-02  1.0184863206599136e-02  1.0184862955155336e-02  1.0184862762526840e-02  1.0184862620937943e-02  1.0184862523105480e-02  1.0184862465752238e-02  2.0209748388932768e-02  2.0209748372386142e-02  1.0184862325220661e-02  1.0184862327729314e-02  1.0184862331833813e-02  1.0184862337923418e-02  1.0184862346573030e-02  1.0184862358481483e-02  1.0184862374449960e-02  1.0184862395377040e-02  1.0184862422256255e-02  1.0184862456170295e-02  1.0184862498278810e-02  1.0184862549798279e-02  1.0184862611973093e-02  1.0184862686038049e-02  1.0184862773173788e-02  1.0184862874458115e-02  1.0184862990816912e-02  1.0184863122979176e-02  1.0184863271441372e-02  1.0184863436445667e-02  1.0184863617976190e-02  1.0184863815776393e-02  1.0184864029387723e-02  1.0184864258208090e-02  1.0184864501567172e-02  1.0184864758813698e-02  1.0184865029409264e-02  1.0184865313022510e-02  1.0184865609616055e-02  1.0184865919518830e-02  1.0184866243475598e-02  1.0184866582666874e-02  1.0184866938695334e-02  1.0184867313537562e-02  1.0184867709464262e-02  1.0184868128935352e-02  1.0184868574476955e-02  1.0184869048546707e-02  1.0184869553392439e-02  1.0184870090907419e-02  1.0184870662486360e-02  1.0184871268889218e-02  1.0184871910121815e-02  1.0184872585344305e-02  1.0184873292819609e-02  1.0184874029915188e-02  1.0184874793177433e-02  1.0184875578509063e-02  1.0184876381491355e-02  1.0184877197898307e-02  1.0184878024433224e-02  1.0184878859657909e-02  1.0184879704964038e-02  1.0184880565244596e-02  1.0184881448698484e-02  1.0184882365061602e-02  1.0184883321713287e-02  1.0184884317784222e-02  1.0184885337640164e-02  1.0184886346375231e-02  1.0184887290139256e-02  1.0184888103022356e-02  1.0184888719961083e-02  1.0184889092093250e-02  1.0184889198488700e-02  1.0184889048802208e-02  1.0184888676050323e-02  1.0184888123899779e-02  1.0184887434529336e-02  1.0184886641070232e-02  1.0184885765415607e-02  1.0184884819971419e-02  1.0184883811238211e-02  1.0184882743481588e-02  1.0184881621501994e-02  1.0184880452194078e-02  1.0184879245018492e-02  1.0184878011699330e-02  1.0184876765487020e-02  1.0184875520270458e-02  1.0184874289739333e-02  1.0184873086715557e-02  1.0184871922705542e-02  1.0184870807669083e-02  1.0184869749963974e-02  1.0184868756409293e-02  1.0184867832409605e-02  1.0184866982094361e-02  1.0184866208440243e-02  1.0184865513356359e-02  1.0184864897719687e-02  1.0184864361352249e-02  1.0184863902938435e-02  1.0184863519894859e-02  1.0184863208229433e-02  1.0184862962468995e-02  1.0184862775868138e-02  1.0184862641589796e-02  1.0184862557562749e-02  2.0209748410844462e-02  2.0209748376703654e-02  1.0184862328311183e-02  1.0184862331516996e-02  1.0184862336616318e-02  1.0184862344032191e-02  1.0184862354379393e-02  1.0184862368385325e-02  1.0184862386881995e-02  1.0184862410807981e-02  1.0184862441205051e-02  1.0184862479206344e-02  1.0184862526015036e-02  1.0184862582873131e-02  1.0184862651020133e-02  1.0184862731642274e-02  1.0184862825814650e-02  1.0184862934440431e-02  1.0184863058192162e-02  1.0184863197461116e-02  1.0184863352321070e-02  1.0184863522512057e-02  1.01848637074