<?xml version="1.0"?>
<VTKFile type="UnstructuredGrid"  version="0.1"  >
<UnstructuredGrid>
<Piece  NumberOfPoints="5151" NumberOfCells="10000">
<Points>
<DataArray  type="Float64"  NumberOfComponents="3"  format="ascii">0 0 0  0.02 0 0  0.04 0 0  0.06 0 0  0.08 0 0  0.1 0 0  0.12 0 0  0.14 0 0  0.16 0 0  0.18 0 0  0.2 0 0  0.22 0 0  0.24 0 0  0.26 0 0  0.28 0 0  0.3 0 0  0.32 0 0  0.34 0 0  0.36 0 0  0.38 0 0  0.4 0 0  0.42 0 0  0.44 0 0  0.46 0 0  0.48 0 0  0.5 0 0  0.52 0 0  0.54 0 0  0.5600000000000001 0 0  0.58 0 0  0.6 0 0  0.62 0 0  0.64 0 0  0.66 0 0  0.68 0 0  0.7 0 0  0.72 0 0  0.74 0 0  0.76 0 0  0.78 0 0  0.8 0 0  0.82 0 0  0.84 0 0  0.86 0 0  0.88 0 0  0.9 0 0  0.92 0 0  0.9399999999999999 0 0  0.96 0 0  0.98 0 0  1 0 0  1.02 0 0  1.04 0 0  1.06 0 0  1.08 0 0  1.1 0 0  1.12 0 0  1.14 0 0  1.16 0 0  1.18 0 0  1.2 0 0  1.22 0 0  1.24 0 0  1.26 0 0  1.28 0 0  1.3 0 0  1.32 0 0  1.34 0 0  1.36 0 0  1.38 0 0  1.4 0 0  1.42 0 0  1.44 0 0  1.46 0 0  1.48 0 0  1.5 0 0  1.52 0 0  1.54 0 0  1.56 0 0  1.58 0 0  1.6 0 0  1.62 0 0  1.64 0 0  1.66 0 0  1.68 0 0  1.7 0 0  1.72 0 0  1.74 0 0  1.76 0 0  1.78 0 0  1.8 0 0  1.82 0 0  1.84 0 0  1.86 0 0  1.88 0 0  1.9 0 0  1.92 0 0  1.94 0 0  1.96 0 0  1.98 0 0  2 0 0  0 0.02 0  0.02 0.02 0  0.04 0.02 0  0.06 0.02 0  0.08 0.02 0  0.1 0.02 0  0.12 0.02 0  0.14 0.02 0  0.16 0.02 0  0.18 0.02 0  0.2 0.02 0  0.22 0.02 0  0.24 0.02 0  0.26 0.02 0  0.28 0.02 0  0.3 0.02 0  0.32 0.02 0  0.34 0.02 0  0.36 0.02 0  0.38 0.02 0  0.4 0.02 0  0.42 0.02 0  0.44 0.02 0  0.46 0.02 0  0.48 0.02 0  0.5 0.02 0  0.52 0.02 0  0.54 0.02 0  0.5600000000000001 0.02 0  0.58 0.02 0  0.6 0.02 0  0.62 0.02 0  0.64 0.02 0  0.66 0.02 0  0.68 0.02 0  0.7 0.02 0  0.72 0.02 0  0.74 0.02 0  0.76 0.02 0  0.78 0.02 0  0.8 0.02 0  0.82 0.02 0  0.84 0.02 0  0.86 0.02 0  0.88 0.02 0  0.9 0.02 0  0.92 0.02 0  0.9399999999999999 0.02 0  0.96 0.02 0  0.98 0.02 0  1 0.02 0  1.02 0.02 0  1.04 0.02 0  1.06 0.02 0  1.08 0.02 0  1.1 0.02 0  1.12 0.02 0  1.14 0.02 0  1.16 0.02 0  1.18 0.02 0  1.2 0.02 0  1.22 0.02 0  1.24 0.02 0  1.26 0.02 0  1.28 0.02 0  1.3 0.02 0  1.32 0.02 0  1.34 0.02 0  1.36 0.02 0  1.38 0.02 0  1.4 0.02 0  1.42 0.02 0  1.44 0.02 0  1.46 0.02 0  1.48 0.02 0  1.5 0.02 0  1.52 0.02 0  1.54 0.02 0  1.56 0.02 0  1.58 0.02 0  1.6 0.02 0  1.62 0.02 0  1.64 0.02 0  1.66 0.02 0  1.68 0.02 0  1.7 0.02 0  1.72 0.02 0  1.74 0.02 0  1.76 0.02 0  1.78 0.02 0  1.8 0.02 0  1.82 0.02 0  1.84 0.02 0  1.86 0.02 0  1.88 0.02 0  1.9 0.02 0  1.92 0.02 0  1.94 0.02 0  1.96 0.02 0  1.98 0.02 0  2 0.02 0  0 0.04 0  0.02 0.04 0  0.04 0.04 0  0.06 0.04 0  0.08 0.04 0  0.1 0.04 0  0.12 0.04 0  0.14 0.04 0  0.16 0.04 0  0.18 0.04 0  0.2 0.04 0  0.22 0.04 0  0.24 0.04 0  0.26 0.04 0  0.28 0.04 0  0.3 0.04 0  0.32 0.04 0  0.34 0.04 0  0.36 0.04 0  0.38 0.04 0  0.4 0.04 0  0.42 0.04 0  0.44 0.04 0  0.46 0.04 0  0.48 0.04 0  0.5 0.04 0  0.52 0.04 0  0.54 0.04 0  0.5600000000000001 0.04 0  0.58 0.04 0  0.6 0.04 0  0.62 0.04 0  0.64 0.04 0  0.66 0.04 0  0.68 0.04 0  0.7 0.04 0  0.72 0.04 0  0.74 0.04 0  0.76 0.04 0  0.78 0.04 0  0.8 0.04 0  0.82 0.04 0  0.84 0.04 0  0.86 0.04 0  0.88 0.04 0  0.9 0.04 0  0.92 0.04 0  0.9399999999999999 0.04 0  0.96 0.04 0  0.98 0.04 0  1 0.04 0  1.02 0.04 0  1.04 0.04 0  1.06 0.04 0  1.08 0.04 0  1.1 0.04 0  1.12 0.04 0  1.14 0.04 0  1.16 0.04 0  1.18 0.04 0  1.2 0.04 0  1.22 0.04 0  1.24 0.04 0  1.26 0.04 0  1.28 0.04 0  1.3 0.04 0  1.32 0.04 0  1.34 0.04 0  1.36 0.04 0  1.38 0.04 0  1.4 0.04 0  1.42 0.04 0  1.44 0.04 0  1.46 0.04 0  1.48 0.04 0  1.5 0.04 0  1.52 0.04 0  1.54 0.04 0  1.56 0.04 0  1.58 0.04 0  1.6 0.04 0  1.62 0.04 0  1.64 0.04 0  1.66 0.04 0  1.68 0.04 0  1.7 0.04 0  1.72 0.04 0  1.74 0.04 0  1.76 0.04 0  1.78 0.04 0  1.8 0.04 0  1.82 0.04 0  1.84 0.04 0  1.86 0.04 0  1.88 0.04 0  1.9 0.04 0  1.92 0.04 0  1.94 0.04 0  1.96 0.04 0  1.98 0.04 0  2 0.04 0  0 0.06 0  0.02 0.06 0  0.04 0.06 0  0.06 0.06 0  0.08 0.06 0  0.1 0.06 0  0.12 0.06 0  0.14 0.06 0  0.16 0.06 0  0.18 0.06 0  0.2 0.06 0  0.22 0.06 0  0.24 0.06 0  0.26 0.06 0  0.28 0.06 0  0.3 0.06 0  0.32 0.06 0  0.34 0.06 0  0.36 0.06 0  0.38 0.06 0  0.4 0.06 0  0.42 0.06 0  0.44 0.06 0  0.46 0.06 0  0.48 0.06 0  0.5 0.06 0  0.52 0.06 0  0.54 0.06 0  0.5600000000000001 0.06 0  0.58 0.06 0  0.6 0.06 0  0.62 0.06 0  0.64 0.06 0  0.66 0.06 0  0.68 0.06 0  0.7 0.06 0  0.72 0.06 0  0.74 0.06 0  0.76 0.06 0  0.78 0.06 0  0.8 0.06 0  0.82 0.06 0  0.84 0.06 0  0.86 0.06 0  0.88 0.06 0  0.9 0.06 0  0.92 0.06 0  0.9399999999999999 0.06 0  0.96 0.06 0  0.98 0.06 0  1 0.06 0  1.02 0.06 0  1.04 0.06 0  1.06 0.06 0  1.08 0.06 0  1.1 0.06 0  1.12 0.06 0  1.14 0.06 0  1.16 0.06 0  1.18 0.06 0  1.2 0.06 0  1.22 0.06 0  1.24 0.06 0  1.26 0.06 0  1.28 0.06 0  1.3 0.06 0  1.32 0.06 0  1.34 0.06 0  1.36 0.06 0  1.38 0.06 0  1.4 0.06 0  1.42 0.06 0  1.44 0.06 0  1.46 0.06 0  1.48 0.06 0  1.5 0.06 0  1.52 0.06 0  1.54 0.06 0  1.56 0.06 0  1.58 0.06 0  1.6 0.06 0  1.62 0.06 0  1.64 0.06 0  1.66 0.06 0  1.68 0.06 0  1.7 0.06 0  1.72 0.06 0  1.74 0.06 0  1.76 0.06 0  1.78 0.06 0  1.8 0.06 0  1.82 0.06 0  1.84 0.06 0  1.86 0.06 0  1.88 0.06 0  1.9 0.06 0  1.92 0.06 0  1.94 0.06 0  1.96 0.06 0  1.98 0.06 0  2 0.06 0  0 0.08 0  0.02 0.08 0  0.04 0.08 0  0.06 0.08 0  0.08 0.08 0  0.1 0.08 0  0.12 0.08 0  0.14 0.08 0  0.16 0.08 0  0.18 0.08 0  0.2 0.08 0  0.22 0.08 0  0.24 0.08 0  0.26 0.08 0  0.28 0.08 0  0.3 0.08 0  0.32 0.08 0  0.34 0.08 0  0.36 0.08 0  0.38 0.08 0  0.4 0.08 0  0.42 0.08 0  0.44 0.08 0  0.46 0.08 0  0.48 0.08 0  0.5 0.08 0  0.52 0.08 0  0.54 0.08 0  0.5600000000000001 0.08 0  0.58 0.08 0  0.6 0.08 0  0.62 0.08 0  0.64 0.08 0  0.66 0.08 0  0.68 0.08 0  0.7 0.08 0  0.72 0.08 0  0.74 0.08 0  0.76 0.08 0  0.78 0.08 0  0.8 0.08 0  0.82 0.08 0  0.84 0.08 0  0.86 0.08 0  0.88 0.08 0  0.9 0.08 0  0.92 0.08 0  0.9399999999999999 0.08 0  0.96 0.08 0  0.98 0.08 0  1 0.08 0  1.02 0.08 0  1.04 0.08 0  1.06 0.08 0  1.08 0.08 0  1.1 0.08 0  1.12 0.08 0  1.14 0.08 0  1.16 0.08 0  1.18 0.08 0  1.2 0.08 0  1.22 0.08 0  1.24 0.08 0  1.26 0.08 0  1.28 0.08 0  1.3 0.08 0  1.32 0.08 0  1.34 0.08 0  1.36 0.08 0  1.38 0.08 0  1.4 0.08 0  1.42 0.08 0  1.44 0.08 0  1.46 0.08 0  1.48 0.08 0  1.5 0.08 0  1.52 0.08 0  1.54 0.08 0  1.56 0.08 0  1.58 0.08 0  1.6 0.08 0  1.62 0.08 0  1.64 0.08 0  1.66 0.08 0  1.68 0.08 0  1.7 0.08 0  1.72 0.08 0  1.74 0.08 0  1.76 0.08 0  1.78 0.08 0  1.8 0.08 0  1.82 0.08 0  1.84 0.08 0  1.86 0.08 0  1.88 0.08 0  1.9 0.08 0  1.92 0.08 0  1.94 0.08 0  1.96 0.08 0  1.98 0.08 0  2 0.08 0  0 0.1 0  0.02 0.1 0  0.04 0.1 0  0.06 0.1 0  0.08 0.1 0  0.1 0.1 0  0.12 0.1 0  0.14 0.1 0  0.16 0.1 0  0.18 0.1 0  0.2 0.1 0  0.22 0.1 0  0.24 0.1 0  0.26 0.1 0  0.28 0.1 0  0.3 0.1 0  0.32 0.1 0  0.34 0.1 0  0.36 0.1 0  0.38 0.1 0  0.4 0.1 0  0.42 0.1 0  0.44 0.1 0  0.46 0.1 0  0.48 0.1 0  0.5 0.1 0  0.52 0.1 0  0.54 0.1 0  0.5600000000000001 0.1 0  0.58 0.1 0  0.6 0.1 0  0.62 0.1 0  0.64 0.1 0  0.66 0.1 0  0.68 0.1 0  0.7 0.1 0  0.72 0.1 0  0.74 0.1 0  0.76 0.1 0  0.78 0.1 0  0.8 0.1 0  0.82 0.1 0  0.84 0.1 0  0.86 0.1 0  0.88 0.1 0  0.9 0.1 0  0.92 0.1 0  0.9399999999999999 0.1 0  0.96 0.1 0  0.98 0.1 0  1 0.1 0  1.02 0.1 0  1.04 0.1 0  1.06 0.1 0  1.08 0.1 0  1.1 0.1 0  1.12 0.1 0  1.14 0.1 0  1.16 0.1 0  1.18 0.1 0  1.2 0.1 0  1.22 0.1 0  1.24 0.1 0  1.26 0.1 0  1.28 0.1 0  1.3 0.1 0  1.32 0.1 0  1.34 0.1 0  1.36 0.1 0  1.38 0.1 0  1.4 0.1 0  1.42 0.1 0  1.44 0.1 0  1.46 0.1 0  1.48 0.1 0  1.5 0.1 0  1.52 0.1 0  1.54 0.1 0  1.56 0.1 0  1.58 0.1 0  1.6 0.1 0  1.62 0.1 0  1.64 0.1 0  1.66 0.1 0  1.68 0.1 0  1.7 0.1 0  1.72 0.1 0  1.74 0.1 0  1.76 0.1 0  1.78 0.1 0  1.8 0.1 0  1.82 0.1 0  1.84 0.1 0  1.86 0.1 0  1.88 0.1 0  1.9 0.1 0  1.92 0.1 0  1.94 0.1 0  1.96 0.1 0  1.98 0.1 0  2 0.1 0  0 0.12 0  0.02 0.12 0  0.04 0.12 0  0.06 0.12 0  0.08 0.12 0  0.1 0.12 0  0.12 0.12 0  0.14 0.12 0  0.16 0.12 0  0.18 0.12 0  0.2 0.12 0  0.22 0.12 0  0.24 0.12 0  0.26 0.12 0  0.28 0.12 0  0.3 0.12 0  0.32 0.12 0  0.34 0.12 0  0.36 0.12 0  0.38 0.12 0  0.4 0.12 0  0.42 0.12 0  0.44 0.12 0  0.46 0.12 0  0.48 0.12 0  0.5 0.12 0  0.52 0.12 0  0.54 0.12 0  0.5600000000000001 0.12 0  0.58 0.12 0  0.6 0.12 0  0.62 0.12 0  0.64 0.12 0  0.66 0.12 0  0.68 0.12 0  0.7 0.12 0  0.72 0.12 0  0.74 0.12 0  0.76 0.12 0  0.78 0.12 0  0.8 0.12 0  0.82 0.12 0  0.84 0.12 0  0.86 0.12 0  0.88 0.12 0  0.9 0.12 0  0.92 0.12 0  0.9399999999999999 0.12 0  0.96 0.12 0  0.98 0.12 0  1 0.12 0  1.02 0.12 0  1.04 0.12 0  1.06 0.12 0  1.08 0.12 0  1.1 0.12 0  1.12 0.12 0  1.14 0.12 0  1.16 0.12 0  1.18 0.12 0  1.2 0.12 0  1.22 0.12 0  1.24 0.12 0  1.26 0.12 0  1.28 0.12 0  1.3 0.12 0  1.32 0.12 0  1.34 0.12 0  1.36 0.12 0  1.38 0.12 0  1.4 0.12 0  1.42 0.12 0  1.44 0.12 0  1.46 0.12 0  1.48 0.12 0  1.5 0.12 0  1.52 0.12 0  1.54 0.12 0  1.56 0.12 0  1.58 0.12 0  1.6 0.12 0  1.62 0.12 0  1.64 0.12 0  1.66 0.12 0  1.68 0.12 0  1.7 0.12 0  1.72 0.12 0  1.74 0.12 0  1.76 0.12 0  1.78 0.12 0  1.8 0.12 0  1.82 0.12 0  1.84 0.12 0  1.86 0.12 0  1.88 0.12 0  1.9 0.12 0  1.92 0.12 0  1.94 0.12 0  1.96 0.12 0  1.98 0.12 0  2 0.12 0  0 0.14 0  0.02 0.14 0  0.04 0.14 0  0.06 0.14 0  0.08 0.14 0  0.1 0.14 0  0.12 0.14 0  0.14 0.14 0  0.16 0.14 0  0.18 0.14 0  0.2 0.14 0  0.22 0.14 0  0.24 0.14 0  0.26 0.14 0  0.28 0.14 0  0.3 0.14 0  0.32 0.14 0  0.34 0.14 0  0.36 0.14 0  0.38 0.14 0  0.4 0.14 0  0.42 0.14 0  0.44 0.14 0  0.46 0.14 0  0.48 0.14 0  0.5 0.14 0  0.52 0.14 0  0.54 0.14 0  0.5600000000000001 0.14 0  0.58 0.14 0  0.6 0.14 0  0.62 0.14 0  0.64 0.14 0  0.66 0.14 0  0.68 0.14 0  0.7 0.14 0  0.72 0.14 0  0.74 0.14 0  0.76 0.14 0  0.78 0.14 0  0.8 0.14 0  0.82 0.14 0  0.84 0.14 0  0.86 0.14 0  0.88 0.14 0  0.9 0.14 0  0.92 0.14 0  0.9399999999999999 0.14 0  0.96 0.14 0  0.98 0.14 0  1 0.14 0  1.02 0.14 0  1.04 0.14 0  1.06 0.14 0  1.08 0.14 0  1.1 0.14 0  1.12 0.14 0  1.14 0.14 0  1.16 0.14 0  1.18 0.14 0  1.2 0.14 0  1.22 0.14 0  1.24 0.14 0  1.26 0.14 0  1.28 0.14 0  1.3 0.14 0  1.32 0.14 0  1.34 0.14 0  1.36 0.14 0  1.38 0.14 0  1.4 0.14 0  1.42 0.14 0  1.44 0.14 0  1.46 0.14 0  1.48 0.14 0  1
[...]
<PointData  Scalars="sols[i]"> 
<DataArray  type="Float64"  Name="sols[i]"  format="ascii">1.5850006080873674e-03  1.0570545883817365e-03  1.0570545883817365e-03  1.0570545883817370e-03  1.0570545883817374e-03  1.0570545883817387e-03  1.0570545883817391e-03  1.0570545883817417e-03  1.0570545883817452e-03  1.0570545883817491e-03  1.0570545883817569e-03  1.0570545883817684e-03  1.0570545883817847e-03  1.0570545883818111e-03  1.0570545883818539e-03  1.0570545883819144e-03  1.0570545883820048e-03  1.0570545883821399e-03  1.0570545883823298e-03  1.0570545883825965e-03  1.0570545883829660e-03  1.0570545883834609e-03  1.0570545883841144e-03  1.0570545883849631e-03  1.0570545883860352e-03  1.0570545883873688e-03  1.0570545883889959e-03  1.0570545883909445e-03  1.0570545883932434e-03  1.0570545883959049e-03  1.0570545883989550e-03  1.0570545884024170e-03  1.0570545884063148e-03  1.0570545884106824e-03  1.0570545884155695e-03  1.0570545884210263e-03  1.0570545884271351e-03  1.0570545884339894e-03  1.0570545884416953e-03  1.0570545884503739e-03  1.0570545884601617e-03  1.0570545884711904e-03  1.0570545884836173e-03  1.0570545884976080e-03  1.0570545885133539e-03  1.0570545885311088e-03  1.0570545885512487e-03  1.0570545885743509e-03  1.0570545886013690e-03  1.0570545886338099e-03  1.0570545886739750e-03  1.0570545887252127e-03  1.0570545887920845e-03  1.0570545888803407e-03  1.0570545889965321e-03  1.0570545891471026e-03  1.0570545893368970e-03  1.0570545895671290e-03  1.0570545898333115e-03  1.0570545901235899e-03  1.0570545904183635e-03  1.0570545906917850e-03  1.0570545909152512e-03  1.0570545910623653e-03  1.0570545911141869e-03  1.0570545910632669e-03  1.0570545909152130e-03  1.0570545906873068e-03  1.0570545904046900e-03  1.0570545900953239e-03  1.0570545897852948e-03  1.0570545894953614e-03  1.0570545892393381e-03  1.0570545890241352e-03  1.0570545888509164e-03  1.0570545887167910e-03  1.0570545886165283e-03  1.0570545885439789e-03  1.0570545884930741e-03  1.0570545884584118e-03  1.0570545884355117e-03  1.0570545884208533e-03  1.0570545884117507e-03  1.0570545884062605e-03  1.0570545884029930e-03  1.0570545884009790e-03  1.0570545883995738e-03  1.0570545883983725e-03  1.0570545883971470e-03  1.0570545883957960e-03  1.0570545883943072e-03  1.0570545883927219e-03  1.0570545883911097e-03  1.0570545883895552e-03  1.0570545883881077e-03  1.0570545883868340e-03  1.0570545883857767e-03  1.0570545883849584e-03  1.0570545883843998e-03  1.0570545883841279e-03  3.1666461218184698e-03  1.0570545883817365e-03  5.2872256198624934e-04  5.2872256198624934e-04  5.2872256198624955e-04  5.2872256198624977e-04  5.2872256198625064e-04  5.2872256198625129e-04  5.2872256198625259e-04  5.2872256198625519e-04  5.2872256198625801e-04  5.2872256198626343e-04  5.2872256198627210e-04  5.2872256198628457e-04  5.2872256198630420e-04  5.2872256198633499e-04  5.2872256198638031e-04  5.2872256198644601e-04  5.2872256198654250e-04  5.2872256198667846e-04  5.2872256198686711e-04  5.2872256198712667e-04  5.2872256198747394e-04  5.2872256198793017e-04  5.2872256198852052e-04  5.2872256198926689e-04  5.2872256199019280e-04  5.2872256199132167e-04  5.2872256199267237e-04  5.2872256199426311e-04  5.2872256199610495e-04  5.2872256199821058e-04  5.2872256200059615e-04  5.2872256200327586e-04  5.2872256200627108e-04  5.2872256200961205e-04  5.2872256201333466e-04  5.2872256201748845e-04  5.2872256202213730e-04  5.2872256202735166e-04  5.2872256203321231e-04  5.2872256203980968e-04  5.2872256204723462e-04  5.2872256205558688e-04  5.2872256206497456e-04  5.2872256207551712e-04  5.2872256208736778e-04  5.2872256210075019e-04  5.2872256211601337e-04  5.2872256213373607e-04  5.2872256215486034e-04  5.2872256218085712e-04  5.2872256221391911e-04  5.2872256225710928e-04  5.2872256231439245e-04  5.2872256239042386e-04  5.2872256248997335e-04  5.2872256261690285e-04  5.2872256277272374e-04  5.2872256295501390e-04  5.2872256315610294e-04  5.2872256336260323e-04  5.2872256355632576e-04  5.2872256371671071e-04  5.2872256382443649e-04  5.2872256386534517e-04  5.2872256383353620e-04  5.2872256373264165e-04  5.2872256357487516e-04  5.2872256337822810e-04  5.2872256316275181e-04  5.2872256294706995e-04  5.2872256274589906e-04  5.2872256256889785e-04  5.2872256242075713e-04  5.2872256230208838e-04  5.2872256221067463e-04  5.2872256214271033e-04  5.2872256209381000e-04  5.2872256205970284e-04  5.2872256203662744e-04  5.2872256202149220e-04  5.2872256201188681e-04  5.2872256200599201e-04  5.2872256200248722e-04  5.2872256200044035e-04  5.2872256199920100e-04  5.2872256199833862e-04  5.2872256199758402e-04  5.2872256199678691e-04  5.2872256199588421e-04  5.2872256199487243e-04  5.2872256199378498e-04  5.2872256199267345e-04  5.2872256199159630e-04  5.2872256199059699e-04  5.2872256198971412e-04  5.2872256198897979e-04  5.2872256198840798e-04  5.2872256198801008e-04  5.2872256198779725e-04  1.0570545883845086e-03  1.0570545883817370e-03  5.2872256198624955e-04  5.2872256198624977e-04  5.2872256198624999e-04  5.2872256198625053e-04  5.2872256198625172e-04  5.2872256198625335e-04  5.2872256198625606e-04  5.2872256198626105e-04  5.2872256198626820e-04  5.2872256198628024e-04  5.2872256198629953e-04  5.2872256198632870e-04  5.2872256198637359e-04  5.2872256198644232e-04  5.2872256198654283e-04  5.2872256198668833e-04  5.2872256198689812e-04  5.2872256198719172e-04  5.2872256198759678e-04  5.2872256198814864e-04  5.2872256198888373e-04  5.2872256198984650e-04  5.2872256199108640e-04  5.2872256199265003e-04  5.2872256199458566e-04  5.2872256199693849e-04  5.2872256199974635e-04  5.2872256200304211e-04  5.2872256200684788e-04  5.2872256201118555e-04  5.2872256201607986e-04  5.2872256202155681e-04  5.2872256202765480e-04  5.2872256203443020e-04  5.2872256204195456e-04  5.2872256205032590e-04  5.2872256205966782e-04  5.2872256207012159e-04  5.2872256208184843e-04  5.2872256209502517e-04  5.2872256210983386e-04  5.2872256212646497e-04  5.2872256214511856e-04  5.2872256216600789e-04  5.2872256218939543e-04  5.2872256221565936e-04  5.2872256224540358e-04  5.2872256227965841e-04  5.2872256232016225e-04  5.2872256236973056e-04  5.2872256243269647e-04  5.2872256251530259e-04  5.2872256262587159e-04  5.2872256277447928e-04  5.2872256297181145e-04  5.2872256322697626e-04  5.2872256354428266e-04  5.2872256391953620e-04  5.2872256433685407e-04  5.2872256476740116e-04  5.2872256517133803e-04  5.2872256550338785e-04  5.2872256572122195e-04  5.2872256579455392e-04  5.2872256571214610e-04  5.2872256548434232e-04  5.2872256514026827e-04  5.2872256472082232e-04  5.2872256426994579e-04  5.2872256382687790e-04  5.2872256342113106e-04  5.2872256307066705e-04  5.2872256278275402e-04  5.2872256255639136e-04  5.2872256238525569e-04  5.2872256226039051e-04  5.2872256217224205e-04  5.2872256211194957e-04  5.2872256207199520e-04  5.2872256204638678e-04  5.2872256203056892e-04  5.2872256202118482e-04  5.2872256201583700e-04  5.2872256201285392e-04  5.2872256201108949e-04  5.2872256200979582e-04  5.2872256200851993e-04  5.2872256200702612e-04  5.2872256200523805e-04  5.2872256200318728e-04  5.2872256200096933e-04  5.2872256199870682e-04  5.2872256199652508e-04  5.2872256199452137e-04  5.2872256199277081e-04  5.2872256199132676e-04  5.2872256199021231e-04  5.2872256198944231e-04  5.2872256198903227e-04  1.0570545883865179e-03  1.0570545883817374e-03  5.2872256198624999e-04  5.2872256198625020e-04  5.2872256198625118e-04  5.2872256198625237e-04  5.2872256198625476e-04  5.2872256198625823e-04  5.2872256198626452e-04  5.2872256198627547e-04  5.2872256198629205e-04  5.2872256198631959e-04  5.2872256198636339e-04  5.2872256198643040e-04  5.2872256198653296e-04  5.2872256198668800e-04  5.2872256198691569e-04  5.2872256198724528e-04  5.2872256198771691e-04  5.2872256198837806e-04  5.2872256198929009e-04  5.2872256199053009e-04  5.2872256199218448e-04  5.2872256199435331e-04  5.2872256199714709e-04  5.2872256200067562e-04  5.2872256200504778e-04  5.2872256201036394e-04  5.2872256201670772e-04  5.2872256202414762e-04  5.2872256203273169e-04  5.2872256204250186e-04  5.2872256205350185e-04  5.2872256206578381e-04  5.2872256207942676e-04  5.2872256209454877e-04  5.2872256211131097e-04  5.2872256212992976e-04  5.2872256215067803e-04  5.2872256217387421e-04  5.2872256219987956e-04  5.2872256222908829e-04  5.2872256226190774e-04  5.2872256229875392e-04  5.2872256234004706e-04  5.2872256238621737e-04  5.2872256243776533e-04  5.2872256249538916e-04  5.2872256256022250e-04  5.2872256263426125e-04  5.2872256272100686e-04  5.2872256282635532e-04  5.2872256295969744e-04  5.2872256313501011e-04  5.2872256337151873e-04  5.2872256369325020e-04  5.2872256412661968e-04  5.2872256469532644e-04  5.2872256541245148e-04  5.2872256627092026e-04  5.2872256723495207e-04  5.2872256823622080e-04  5.2872256917822964e-04  5.2872256995023623e-04  5.2872257044869774e-04  5.2872257060065768e-04  5.2872257038154963e-04  5.2872256982097396e-04  5.2872256899435285e-04  5.2872256800394100e-04  5.2872256695627329e-04  5.2872256594317505e-04  5.2872256503051925e-04  5.2872256425533172e-04  5.2872256362927771e-04  5.2872256314548849e-04  5.2872256278604078e-04  5.2872256252833665e-04  5.2872256234962045e-04  5.2872256222961543e-04  5.2872256215165544e-04  5.2872256210281191e-04  5.2872256207347481e-04  5.2872256205670795e-04  5.2872256204762450e-04  5.2872256204285163e-04  5.2872256204010751e-04  5.2872256203792285e-04  5.2872256203543287e-04  5.2872256203222547e-04  5.2872256202821826e-04  5.2872256202355131e-04  5.2872256201849047e-04  5.2872256201334615e-04  5.2872256200841390e-04  5.2872256200392433e-04  5.2872256200003995e-04  5.2872256199686042e-04  5.2872256199442530e-04  5.2872256199275130e-04  5.2872256199186008e-04  1.0570545883912558e-03  1.0570545883817389e-03  5.2872256198625064e-04  5.2872256198625150e-04  5.2872256198625302e-04  5.2872256198625562e-04  5.2872256198626083e-04  5.2872256198626885e-04  5.2872256198628273e-04  5.2872256198630615e-04  5.2872256198634377e-04  5.2872256198640459e-04  5.2872256198650130e-04  5.2872256198665049e-04  5.2872256198687861e-04  5.2872256198722230e-04  5.2872256198772862e-04  5.2872256198846328e-04  5.2872256198951517e-04  5.2872256199099380e-04  5.2872256199303969e-04  5.2872256199582740e-04  5.2872256199955879e-04  5.2872256200446664e-04  5.2872256201080630e-04  5.2872256201883633e-04  5.2872256202881013e-04  5.2872256204095742e-04  5.2872256205546827e-04  5.2872256207249090e-04  5.2872256209212862e-04  5.2872256211446166e-04  5.2872256213957168e-04  5.2872256216756350e-04  5.2872256219860432e-04  5.2872256223295336e-04  5.2872256227097774e-04  5.2872256231317229e-04  5.2872256236016183e-04  5.2872256241268221e-04  5.2872256247156837e-04  5.2872256253772682e-04  5.2872256261209593e-04  5.2872256269561831e-04  5.2872256278921575e-04  5.2872256289379063e-04  5.2872256301032101e-04  5.2872256314010673e-04  5.2872256328527359e-04  5.2872256344969676e-04  5.2872256364047622e-04  5.2872256387007381e-04  5.2872256415908297e-04  5.2872256453920653e-04  5.2872256505548019e-04  5.2872256576603116e-04  5.2872256673707103e-04  5.2872256803092148e-04  5.2872256968632028e-04  5.2872257169353141e-04  5.2872257397100866e-04  5.2872257635373972e-04  5.2872257860305471e-04  5.2872258044206932e-04  5.2872258161161371e-04  5.2872258193170500e-04  5.2872258134788229e-04  5.2872257994456982e-04  5.2872257792021334e-04  5.2872257553501626e-04  5.2872257305172990e-04  5.2872257068859688e-04  5.2872256859433115e-04  5.2872256684493094e-04  5.2872256545572448e-04  5.2872256440025529e-04  5.2872256362926015e-04  5.2872256308581888e-04  5.2872256271537009e-04  5.2872256247101781e-04  5.2872256231533560e-04  5.2872256222001070e-04  5.2872256216443688e-04  5.2872256213399899e-04  5.2872256211852471e-04  5.2872256211104448e-04  5.2872256210688624e-04  5.2872256210307581e-04  5.2872256209791912e-04  5.2872256209069172e-04  5.2872256208138027e-04  5.2872256207044381e-04  5.2872256205859641e-04  5.2872256204661793e-04  5.2872256203521668e-04  5.2872256202493215e-04  5.2872256201611997e-04  5.2872256200896858e-04  5.2872256200353380e-04  5.2872256199981672e-04  5.2872256199783414e-04  1.0570545884012929e-03  1.0570545883817426e-03  5.2872256198625237e-04  5.2872256198625411e-04  5.2872256198625736e-04  5.2872256198626311e-04  5.2872256198627351e-04  5.2872256198629119e-04  5.2872256198632111e-04  5.2872256198637142e-04  5.2872256198645273e-04  5.2872256198658457e-04  5.2872256198679382e-04  5.2872256198711843e-04  5.2872256198761630e-04  5.2872256198836765e-04  5.2872256198947961e-04  5.2872256199109962e-04  5.2872256199342567e-04  5.2872256199670885e-04  5.2872256200127096e-04  5.2872256200751065e-04  5.2872256201589923e-04  5.2872256202697891e-04  5.2872256204134524e-04  5.2872256205960884e-04  5.2872256208236191e-04  5.2872256211013613e-04  5.2872256214336574e-04  5.2872256218237446e-04  5.2872256222737850e-04  5.2872256227852899e-04  5.2872256233597154e-04  5.2872256239991432e-04  5.2872256247071250e-04  5.2872256254894007e-04  5.2872256263543707e-04  5.2872256273134494e-04  5.2872256283810720e-04  5.2872256295743709e-04  5.2872256309127665e-04  5.2872256324173008e-04  5.2872256341097621e-04  5.2872256360117975e-04  5.2872256381440437e-04  5.2872256405257442e-04  5.2872256431760894e-04  5.2872256461187648e-04  5.2872256493922921e-04  5.2872256530698929e-04  5.2872256572928647e-04  5.2872256623212859e-04  5.2872256686029321e-04  5.2872256768530298e-04  5.2872256881231487e-04  5.2872257038173839e-04  5.2872257255942969e-04  5.2872257550893556e-04  5.2872257934248297e-04  5.2872258405586544e-04  5.2872258946453916e-04  5.2872259516857244e-04  5.2872260057408658e-04  5.2872260498387053e-04  5.2872260774420687e-04  5.2872260840781493e-04  5.2872260685569951e-04  5.2872260332770802e-04  5.2872259834849762e-04  5.2872259258282040e-04  5.2872258667965681e-04  5.2872258115635147e-04  5.2872257634502403e-04  5.2872257239547403e-04  5.2872256931364020e-04  5.2872256701282192e-04  5.2872256536114540e-04  5.2872256421696170e-04  5.2872256345051750e-04  5.2872256295408214e-04  5.2872256264412348e-04  5.2872256245898696e-04  5.2872256235470439e-04  5.2872256230058166e-04  5.2872256227546439e-04  5.2872256226493310e-04  5.2872256225937071e-04  5.2872256225272541e-04  5.2872256224167696e-04  5.2872256222501039e-04  5.2872256220306440e-04  5.2872256217719620e-04  5.2872256214927409e-04  5.2872256212123934e-04  5.2872256209478361e-04  5.2872256207115234e-04  5.2872256205110913e-04  5.2872256203499745e-04  5.2872256202285677e-04  5.2872256201460144e-04  5.2872256201019112e-04  1.0570545884220073e-03  1.0570545883817474e-03  5.2872256198625530e-04  5.2872256198625877e-04  5.2872256198626538e-04  5.2872256198627753e-04  5.2872256198629921e-04  5.2872256198633607e-04  5.2872256198639906e-04  5.2872256198650477e-04  5.2872256198667749e-04  5.2872256198695786e-04  5.2872256198740445e-04  5.2872256198810267e-04  5.2872256198917755e-04  5.2872256199080624e-04  5.2872256199322965e-04  5.2872256199677824e-04  5.2872256200189502e-04  5.2872256200915246e-04  5.2872256201928476e-04  5.2872256203320678e-04  5.2872256205201400e-04  5.2872256207697288e-04  5.2872256210947878e-04  5.2872256215097087e-04  5.2872256220284062e-04  5.2872256226632510e-04  5.2872256234241495e-04  5.2872256243181913e-04  5.2872256253497685e-04  5.2872256265215482e-04  5.2872256278359579e-04  5.2872256292969583e-04  5.2872256309120401e-04  5.2872256326939664e-04  5.2872256346619593e-04  5.2872256368424134e-04  5.2872256392688471e-04  5.2872256419811891e-04  5.2872256450247040e-04  5.2872256484484236e-04  5.2872256523030996e-04  5.2872256566388392e-04  5.2872256615024878e-04  5.2872256669357328e-04  5.2872256729762795e-04  5.2872256796656953e-04  5.2872256870698767e-04  5.2872256953209414e-04  5.2872257046914124e-04  5.2872257157125227e-04  5.2872257293433823e-04  5.2872257471803198e-04  5.2872257716604057e-04  5.2872258061582866e-04  5.2872258548146531e-04  5.2872259219061439e-04  5.2872260106321799e-04  5.2872261214112481e-04  5.2872262501267825e-04  5.2872263870814185e-04  5.2872265174455559e-04  5.2872266235790423e-04  5.2872266889014306e-04  5.2872267022400512e-04  5.2872266610651925e-04  5.2872265721745919e-04  5.2872264494857656e-04  5.2872263100085630e-04  5.2872261697425003e-04  5.2872260408604499e-04  5.2872259306370819e-04  5.2872258418168732e-04  5.2872257737817990e-04  5.2872257239134387e-04  5.2872256887591287e-04  5.2872256648406834e-04  5.2872256491063143e-04  5.2872256391069865e-04  5.2872256329976330e-04  5.2872256294494546e-04  5.2872256275334623e-04  5.2872256266102359e-04  5.2872256262422848e-04  5.2872256261319271e-04  5.2872256260809805e-04  5.2872256259660951e-04  5.2872256257226354e-04  5.2872256253321751e-04  5.2872256248106013e-04  5.2872256241958912e-04  5.2872256235361444e-04  5.2872256228792328e-04  5.2872256222653185e-04  5.2872256217227501e-04  5.2872256212675803e-04  5.2872256209055034e-04  5.2872256206352086e-04  5.2872256204526159e-04  5.2872256203549944e-04  1.0570545884642925e-03  1.0570545883817591e-03  5.2872256198626159e-04  5.2872256198626820e-04  5.2872256198628175e-04  5.2872256198630647e-04  5.2872256198635060e-04  5.2872256198642671e-04  5.2872256198655703e-04  5.2872256198677626e-04  5.2872256198713784e-04  5.2872256198772754e-04  5.2872256198867220e-04  5.2872256199015984e-04  5.2872256199246442e-04  5.2872256199597528e-04  5.2872256200123193e-04  5.2872256200897259e-04  5.2872256202018963e-04  5.2872256203618227e-04  5.2872256205862449e-04  5.2872256208961587e-04  5.2872256213169831e-04  5.2872256218783288e-04  5.2872256226129581e-04  5.2872256235548653e-04  5.2872256247368191e-04  5.2872256261876681e-04  5.2872256279300786e-04  5.2872256299794766e-04  5.2872256323445172e-04  5.2872256350293585e-04  5.2872256380373712e-04  5.2872256413756470e-04  5.2872256450598332e-04  5.2872256491183066e-04  5.2872256535950988e-04  5.2872256585513588e-04  5.2872256640650885e-04  5.2872256702294089e-04  5.2872256771498898e-04  5.2872256849409373e-04  5.2872256937210840e-04  5.2872257036070238e-04  5.2872257147063971e-04  5.2872257271110870e-04  5.2872257408956953e-04  5.2872257561294015e-04  5.2872257729146455e-04  5.2872257914731455e-04  5.2872258123073186e-04  5.2872258364711471e-04  5.2872258659786894e-04  5.2872259043435063e-04  5.2872259571585417e-04  5.2872260324808573e-04  5.2872261406029537e-04  5.2872262926662050e-04  5.2872264976823826e-04  5.2872267580772730e-04  5.2872270648630340e-04  5.2872273945356926e-04  5.2872277099472740e-04  5.2872279662642587e-04  5.2872281212000853e-04  5.2872281466943101e-04  5.2872280376005778e-04  5.2872278131733605e-04  5.2872275104591721e-04  5.2872271730260113e-04  5.2872268401846115e-04  5.2872265402754276e-04  5.2872262887943716e-04  5.2872260901097373e-04  5.2872259408772099e-04  5.2872258335895980e-04  5.2872257593829144e-04  5.2872257098319966e-04  5.2872256778453816e-04  5.2872256579213571e-04  5.2872256460332495e-04  5.2872256393514589e-04  5.2872256359353168e-04  5.2872256344650660e-04  5.2872256340410367e-04  5.2872256340494783e-04  5.2872256340810329e-04  5.2872256338836712e-04  5.2872256333327643e-04  5.2872256324063319e-04  5.2872256311590462e-04  5.2872256296937221e-04  5.2872256281327138e-04  5.2872256265932009e-04  5.2872256251698712e-04  5.2872256239264149e-04  5.2872256228955240e-04  5.2872256220847912e-04  5.2872256214857262e-04  5.2872256210840401e-04  5.2872256208693420e-04  1.0570545885499028e-03  1.0570545883817799e-03  5.2872256198627341e-04  5.2872256198628685e-04  5.2872256198631395e-04  5.2872256198636361e-04  5.2872256198645230e-04  5.2872256198660691e-04  5.2872256198687254e-04  5.2872256198732270e-04  5.2872256198807145e-04  5.2872256198930071e-04  5.2872256199128567e-04  5.2872256199443528e-04  5.2872256199935018e-04  5.2872256200688897e-04  5.2872256201825000e-04  5.2872256203508180e-04  5.2872256205960819e-04  5.2872256209476626e-04  5.2872256214436494e-04  5.2872256221322131e-04  5.28722562307