<?xml version="1.0"?>
<VTKFile type="UnstructuredGrid"  version="0.1"  >
<UnstructuredGrid>
<Piece  NumberOfPoints="5151" NumberOfCells="10000">
<Points>
<DataArray  type="Float64"  NumberOfComponents="3"  format="ascii">0 0 0  0.02 0 0  0.04 0 0  0.06 0 0  0.08 0 0  0.1 0 0  0.12 0 0  0.14 0 0  0.16 0 0  0.18 0 0  0.2 0 0  0.22 0 0  0.24 0 0  0.26 0 0  0.28 0 0  0.3 0 0  0.32 0 0  0.34 0 0  0.36 0 0  0.38 0 0  0.4 0 0  0.42 0 0  0.44 0 0  0.46 0 0  0.48 0 0  0.5 0 0  0.52 0 0  0.54 0 0  0.5600000000000001 0 0  0.58 0 0  0.6 0 0  0.62 0 0  0.64 0 0  0.66 0 0  0.68 0 0  0.7 0 0  0.72 0 0  0.74 0 0  0.76 0 0  0.78 0 0  0.8 0 0  0.82 0 0  0.84 0 0  0.86 0 0  0.88 0 0  0.9 0 0  0.92 0 0  0.9399999999999999 0 0  0.96 0 0  0.98 0 0  1 0 0  1.02 0 0  1.04 0 0  1.06 0 0  1.08 0 0  1.1 0 0  1.12 0 0  1.14 0 0  1.16 0 0  1.18 0 0  1.2 0 0  1.22 0 0  1.24 0 0  1.26 0 0  1.28 0 0  1.3 0 0  1.32 0 0  1.34 0 0  1.36 0 0  1.38 0 0  1.4 0 0  1.42 0 0  1.44 0 0  1.46 0 0  1.48 0 0  1.5 0 0  1.52 0 0  1.54 0 0  1.56 0 0  1.58 0 0  1.6 0 0  1.62 0 0  1.64 0 0  1.66 0 0  1.68 0 0  1.7 0 0  1.72 0 0  1.74 0 0  1.76 0 0  1.78 0 0  1.8 0 0  1.82 0 0  1.84 0 0  1.86 0 0  1.88 0 0  1.9 0 0  1.92 0 0  1.94 0 0  1.96 0 0  1.98 0 0  2 0 0  0 0.02 0  0.02 0.02 0  0.04 0.02 0  0.06 0.02 0  0.08 0.02 0  0.1 0.02 0  0.12 0.02 0  0.14 0.02 0  0.16 0.02 0  0.18 0.02 0  0.2 0.02 0  0.22 0.02 0  0.24 0.02 0  0.26 0.02 0  0.28 0.02 0  0.3 0.02 0  0.32 0.02 0  0.34 0.02 0  0.36 0.02 0  0.38 0.02 0  0.4 0.02 0  0.42 0.02 0  0.44 0.02 0  0.46 0.02 0  0.48 0.02 0  0.5 0.02 0  0.52 0.02 0  0.54 0.02 0  0.5600000000000001 0.02 0  0.58 0.02 0  0.6 0.02 0  0.62 0.02 0  0.64 0.02 0  0.66 0.02 0  0.68 0.02 0  0.7 0.02 0  0.72 0.02 0  0.74 0.02 0  0.76 0.02 0  0.78 0.02 0  0.8 0.02 0  0.82 0.02 0  0.84 0.02 0  0.86 0.02 0  0.88 0.02 0  0.9 0.02 0  0.92 0.02 0  0.9399999999999999 0.02 0  0.96 0.02 0  0.98 0.02 0  1 0.02 0  1.02 0.02 0  1.04 0.02 0  1.06 0.02 0  1.08 0.02 0  1.1 0.02 0  1.12 0.02 0  1.14 0.02 0  1.16 0.02 0  1.18 0.02 0  1.2 0.02 0  1.22 0.02 0  1.24 0.02 0  1.26 0.02 0  1.28 0.02 0  1.3 0.02 0  1.32 0.02 0  1.34 0.02 0  1.36 0.02 0  1.38 0.02 0  1.4 0.02 0  1.42 0.02 0  1.44 0.02 0  1.46 0.02 0  1.48 0.02 0  1.5 0.02 0  1.52 0.02 0  1.54 0.02 0  1.56 0.02 0  1.58 0.02 0  1.6 0.02 0  1.62 0.02 0  1.64 0.02 0  1.66 0.02 0  1.68 0.02 0  1.7 0.02 0  1.72 0.02 0  1.74 0.02 0  1.76 0.02 0  1.78 0.02 0  1.8 0.02 0  1.82 0.02 0  1.84 0.02 0  1.86 0.02 0  1.88 0.02 0  1.9 0.02 0  1.92 0.02 0  1.94 0.02 0  1.96 0.02 0  1.98 0.02 0  2 0.02 0  0 0.04 0  0.02 0.04 0  0.04 0.04 0  0.06 0.04 0  0.08 0.04 0  0.1 0.04 0  0.12 0.04 0  0.14 0.04 0  0.16 0.04 0  0.18 0.04 0  0.2 0.04 0  0.22 0.04 0  0.24 0.04 0  0.26 0.04 0  0.28 0.04 0  0.3 0.04 0  0.32 0.04 0  0.34 0.04 0  0.36 0.04 0  0.38 0.04 0  0.4 0.04 0  0.42 0.04 0  0.44 0.04 0  0.46 0.04 0  0.48 0.04 0  0.5 0.04 0  0.52 0.04 0  0.54 0.04 0  0.5600000000000001 0.04 0  0.58 0.04 0  0.6 0.04 0  0.62 0.04 0  0.64 0.04 0  0.66 0.04 0  0.68 0.04 0  0.7 0.04 0  0.72 0.04 0  0.74 0.04 0  0.76 0.04 0  0.78 0.04 0  0.8 0.04 0  0.82 0.04 0  0.84 0.04 0  0.86 0.04 0  0.88 0.04 0  0.9 0.04 0  0.92 0.04 0  0.9399999999999999 0.04 0  0.96 0.04 0  0.98 0.04 0  1 0.04 0  1.02 0.04 0  1.04 0.04 0  1.06 0.04 0  1.08 0.04 0  1.1 0.04 0  1.12 0.04 0  1.14 0.04 0  1.16 0.04 0  1.18 0.04 0  1.2 0.04 0  1.22 0.04 0  1.24 0.04 0  1.26 0.04 0  1.28 0.04 0  1.3 0.04 0  1.32 0.04 0  1.34 0.04 0  1.36 0.04 0  1.38 0.04 0  1.4 0.04 0  1.42 0.04 0  1.44 0.04 0  1.46 0.04 0  1.48 0.04 0  1.5 0.04 0  1.52 0.04 0  1.54 0.04 0  1.56 0.04 0  1.58 0.04 0  1.6 0.04 0  1.62 0.04 0  1.64 0.04 0  1.66 0.04 0  1.68 0.04 0  1.7 0.04 0  1.72 0.04 0  1.74 0.04 0  1.76 0.04 0  1.78 0.04 0  1.8 0.04 0  1.82 0.04 0  1.84 0.04 0  1.86 0.04 0  1.88 0.04 0  1.9 0.04 0  1.92 0.04 0  1.94 0.04 0  1.96 0.04 0  1.98 0.04 0  2 0.04 0  0 0.06 0  0.02 0.06 0  0.04 0.06 0  0.06 0.06 0  0.08 0.06 0  0.1 0.06 0  0.12 0.06 0  0.14 0.06 0  0.16 0.06 0  0.18 0.06 0  0.2 0.06 0  0.22 0.06 0  0.24 0.06 0  0.26 0.06 0  0.28 0.06 0  0.3 0.06 0  0.32 0.06 0  0.34 0.06 0  0.36 0.06 0  0.38 0.06 0  0.4 0.06 0  0.42 0.06 0  0.44 0.06 0  0.46 0.06 0  0.48 0.06 0  0.5 0.06 0  0.52 0.06 0  0.54 0.06 0  0.5600000000000001 0.06 0  0.58 0.06 0  0.6 0.06 0  0.62 0.06 0  0.64 0.06 0  0.66 0.06 0  0.68 0.06 0  0.7 0.06 0  0.72 0.06 0  0.74 0.06 0  0.76 0.06 0  0.78 0.06 0  0.8 0.06 0  0.82 0.06 0  0.84 0.06 0  0.86 0.06 0  0.88 0.06 0  0.9 0.06 0  0.92 0.06 0  0.9399999999999999 0.06 0  0.96 0.06 0  0.98 0.06 0  1 0.06 0  1.02 0.06 0  1.04 0.06 0  1.06 0.06 0  1.08 0.06 0  1.1 0.06 0  1.12 0.06 0  1.14 0.06 0  1.16 0.06 0  1.18 0.06 0  1.2 0.06 0  1.22 0.06 0  1.24 0.06 0  1.26 0.06 0  1.28 0.06 0  1.3 0.06 0  1.32 0.06 0  1.34 0.06 0  1.36 0.06 0  1.38 0.06 0  1.4 0.06 0  1.42 0.06 0  1.44 0.06 0  1.46 0.06 0  1.48 0.06 0  1.5 0.06 0  1.52 0.06 0  1.54 0.06 0  1.56 0.06 0  1.58 0.06 0  1.6 0.06 0  1.62 0.06 0  1.64 0.06 0  1.66 0.06 0  1.68 0.06 0  1.7 0.06 0  1.72 0.06 0  1.74 0.06 0  1.76 0.06 0  1.78 0.06 0  1.8 0.06 0  1.82 0.06 0  1.84 0.06 0  1.86 0.06 0  1.88 0.06 0  1.9 0.06 0  1.92 0.06 0  1.94 0.06 0  1.96 0.06 0  1.98 0.06 0  2 0.06 0  0 0.08 0  0.02 0.08 0  0.04 0.08 0  0.06 0.08 0  0.08 0.08 0  0.1 0.08 0  0.12 0.08 0  0.14 0.08 0  0.16 0.08 0  0.18 0.08 0  0.2 0.08 0  0.22 0.08 0  0.24 0.08 0  0.26 0.08 0  0.28 0.08 0  0.3 0.08 0  0.32 0.08 0  0.34 0.08 0  0.36 0.08 0  0.38 0.08 0  0.4 0.08 0  0.42 0.08 0  0.44 0.08 0  0.46 0.08 0  0.48 0.08 0  0.5 0.08 0  0.52 0.08 0  0.54 0.08 0  0.5600000000000001 0.08 0  0.58 0.08 0  0.6 0.08 0  0.62 0.08 0  0.64 0.08 0  0.66 0.08 0  0.68 0.08 0  0.7 0.08 0  0.72 0.08 0  0.74 0.08 0  0.76 0.08 0  0.78 0.08 0  0.8 0.08 0  0.82 0.08 0  0.84 0.08 0  0.86 0.08 0  0.88 0.08 0  0.9 0.08 0  0.92 0.08 0  0.9399999999999999 0.08 0  0.96 0.08 0  0.98 0.08 0  1 0.08 0  1.02 0.08 0  1.04 0.08 0  1.06 0.08 0  1.08 0.08 0  1.1 0.08 0  1.12 0.08 0  1.14 0.08 0  1.16 0.08 0  1.18 0.08 0  1.2 0.08 0  1.22 0.08 0  1.24 0.08 0  1.26 0.08 0  1.28 0.08 0  1.3 0.08 0  1.32 0.08 0  1.34 0.08 0  1.36 0.08 0  1.38 0.08 0  1.4 0.08 0  1.42 0.08 0  1.44 0.08 0  1.46 0.08 0  1.48 0.08 0  1.5 0.08 0  1.52 0.08 0  1.54 0.08 0  1.56 0.08 0  1.58 0.08 0  1.6 0.08 0  1.62 0.08 0  1.64 0.08 0  1.66 0.08 0  1.68 0.08 0  1.7 0.08 0  1.72 0.08 0  1.74 0.08 0  1.76 0.08 0  1.78 0.08 0  1.8 0.08 0  1.82 0.08 0  1.84 0.08 0  1.86 0.08 0  1.88 0.08 0  1.9 0.08 0  1.92 0.08 0  1.94 0.08 0  1.96 0.08 0  1.98 0.08 0  2 0.08 0  0 0.1 0  0.02 0.1 0  0.04 0.1 0  0.06 0.1 0  0.08 0.1 0  0.1 0.1 0  0.12 0.1 0  0.14 0.1 0  0.16 0.1 0  0.18 0.1 0  0.2 0.1 0  0.22 0.1 0  0.24 0.1 0  0.26 0.1 0  0.28 0.1 0  0.3 0.1 0  0.32 0.1 0  0.34 0.1 0  0.36 0.1 0  0.38 0.1 0  0.4 0.1 0  0.42 0.1 0  0.44 0.1 0  0.46 0.1 0  0.48 0.1 0  0.5 0.1 0  0.52 0.1 0  0.54 0.1 0  0.5600000000000001 0.1 0  0.58 0.1 0  0.6 0.1 0  0.62 0.1 0  0.64 0.1 0  0.66 0.1 0  0.68 0.1 0  0.7 0.1 0  0.72 0.1 0  0.74 0.1 0  0.76 0.1 0  0.78 0.1 0  0.8 0.1 0  0.82 0.1 0  0.84 0.1 0  0.86 0.1 0  0.88 0.1 0  0.9 0.1 0  0.92 0.1 0  0.9399999999999999 0.1 0  0.96 0.1 0  0.98 0.1 0  1 0.1 0  1.02 0.1 0  1.04 0.1 0  1.06 0.1 0  1.08 0.1 0  1.1 0.1 0  1.12 0.1 0  1.14 0.1 0  1.16 0.1 0  1.18 0.1 0  1.2 0.1 0  1.22 0.1 0  1.24 0.1 0  1.26 0.1 0  1.28 0.1 0  1.3 0.1 0  1.32 0.1 0  1.34 0.1 0  1.36 0.1 0  1.38 0.1 0  1.4 0.1 0  1.42 0.1 0  1.44 0.1 0  1.46 0.1 0  1.48 0.1 0  1.5 0.1 0  1.52 0.1 0  1.54 0.1 0  1.56 0.1 0  1.58 0.1 0  1.6 0.1 0  1.62 0.1 0  1.64 0.1 0  1.66 0.1 0  1.68 0.1 0  1.7 0.1 0  1.72 0.1 0  1.74 0.1 0  1.76 0.1 0  1.78 0.1 0  1.8 0.1 0  1.82 0.1 0  1.84 0.1 0  1.86 0.1 0  1.88 0.1 0  1.9 0.1 0  1.92 0.1 0  1.94 0.1 0  1.96 0.1 0  1.98 0.1 0  2 0.1 0  0 0.12 0  0.02 0.12 0  0.04 0.12 0  0.06 0.12 0  0.08 0.12 0  0.1 0.12 0  0.12 0.12 0  0.14 0.12 0  0.16 0.12 0  0.18 0.12 0  0.2 0.12 0  0.22 0.12 0  0.24 0.12 0  0.26 0.12 0  0.28 0.12 0  0.3 0.12 0  0.32 0.12 0  0.34 0.12 0  0.36 0.12 0  0.38 0.12 0  0.4 0.12 0  0.42 0.12 0  0.44 0.12 0  0.46 0.12 0  0.48 0.12 0  0.5 0.12 0  0.52 0.12 0  0.54 0.12 0  0.5600000000000001 0.12 0  0.58 0.12 0  0.6 0.12 0  0.62 0.12 0  0.64 0.12 0  0.66 0.12 0  0.68 0.12 0  0.7 0.12 0  0.72 0.12 0  0.74 0.12 0  0.76 0.12 0  0.78 0.12 0  0.8 0.12 0  0.82 0.12 0  0.84 0.12 0  0.86 0.12 0  0.88 0.12 0  0.9 0.12 0  0.92 0.12 0  0.9399999999999999 0.12 0  0.96 0.12 0  0.98 0.12 0  1 0.12 0  1.02 0.12 0  1.04 0.12 0  1.06 0.12 0  1.08 0.12 0  1.1 0.12 0  1.12 0.12 0  1.14 0.12 0  1.16 0.12 0  1.18 0.12 0  1.2 0.12 0  1.22 0.12 0  1.24 0.12 0  1.26 0.12 0  1.28 0.12 0  1.3 0.12 0  1.32 0.12 0  1.34 0.12 0  1.36 0.12 0  1.38 0.12 0  1.4 0.12 0  1.42 0.12 0  1.44 0.12 0  1.46 0.12 0  1.48 0.12 0  1.5 0.12 0  1.52 0.12 0  1.54 0.12 0  1.56 0.12 0  1.58 0.12 0  1.6 0.12 0  1.62 0.12 0  1.64 0.12 0  1.66 0.12 0  1.68 0.12 0  1.7 0.12 0  1.72 0.12 0  1.74 0.12 0  1.76 0.12 0  1.78 0.12 0  1.8 0.12 0  1.82 0.12 0  1.84 0.12 0  1.86 0.12 0  1.88 0.12 0  1.9 0.12 0  1.92 0.12 0  1.94 0.12 0  1.96 0.12 0  1.98 0.12 0  2 0.12 0  0 0.14 0  0.02 0.14 0  0.04 0.14 0  0.06 0.14 0  0.08 0.14 0  0.1 0.14 0  0.12 0.14 0  0.14 0.14 0  0.16 0.14 0  0.18 0.14 0  0.2 0.14 0  0.22 0.14 0  0.24 0.14 0  0.26 0.14 0  0.28 0.14 0  0.3 0.14 0  0.32 0.14 0  0.34 0.14 0  0.36 0.14 0  0.38 0.14 0  0.4 0.14 0  0.42 0.14 0  0.44 0.14 0  0.46 0.14 0  0.48 0.14 0  0.5 0.14 0  0.52 0.14 0  0.54 0.14 0  0.5600000000000001 0.14 0  0.58 0.14 0  0.6 0.14 0  0.62 0.14 0  0.64 0.14 0  0.66 0.14 0  0.68 0.14 0  0.7 0.14 0  0.72 0.14 0  0.74 0.14 0  0.76 0.14 0  0.78 0.14 0  0.8 0.14 0  0.82 0.14 0  0.84 0.14 0  0.86 0.14 0  0.88 0.14 0  0.9 0.14 0  0.92 0.14 0  0.9399999999999999 0.14 0  0.96 0.14 0  0.98 0.14 0  1 0.14 0  1.02 0.14 0  1.04 0.14 0  1.06 0.14 0  1.08 0.14 0  1.1 0.14 0  1.12 0.14 0  1.14 0.14 0  1.16 0.14 0  1.18 0.14 0  1.2 0.14 0  1.22 0.14 0  1.24 0.14 0  1.26 0.14 0  1.28 0.14 0  1.3 0.14 0  1.32 0.14 0  1.34 0.14 0  1.36 0.14 0  1.38 0.14 0  1.4 0.14 0  1.42 0.14 0  1.44 0.14 0  1.46 0.14 0  1.48 0.14 0  1
[...]
<PointData  Scalars="sols[i]"> 
<DataArray  type="Float64"  Name="sols[i]"  format="ascii">1.7884788746275158e-03  1.1930249450684094e-03  1.1930249450684098e-03  1.1930249450684098e-03  1.1930249450684107e-03  1.1930249450684128e-03  1.1930249450684141e-03  1.1930249450684185e-03  1.1930249450684243e-03  1.1930249450684330e-03  1.1930249450684478e-03  1.1930249450684707e-03  1.1930249450685028e-03  1.1930249450685527e-03  1.1930249450686275e-03  1.1930249450687318e-03  1.1930249450688806e-03  1.1930249450690920e-03  1.1930249450693789e-03  1.1930249450697683e-03  1.1930249450702909e-03  1.1930249450709726e-03  1.1930249450718522e-03  1.1930249450729702e-03  1.1930249450743606e-03  1.1930249450760641e-03  1.1930249450781178e-03  1.1930249450805516e-03  1.1930249450833976e-03  1.1930249450866689e-03  1.1930249450903929e-03  1.1930249450945944e-03  1.1930249450992976e-03  1.1930249451045393e-03  1.1930249451103708e-03  1.1930249451168439e-03  1.1930249451240456e-03  1.1930249451320742e-03  1.1930249451410399e-03  1.1930249451510694e-03  1.1930249451623065e-03  1.1930249451748910e-03  1.1930249451889937e-03  1.1930249452048031e-03  1.1930249452225482e-03  1.1930249452425459e-03  1.1930249452652795e-03  1.1930249452914963e-03  1.1930249453224165e-03  1.1930249453599440e-03  1.1930249454069450e-03  1.1930249454675267e-03  1.1930249455472050e-03  1.1930249456528303e-03  1.1930249457920781e-03  1.1930249459723317e-03  1.1930249461988977e-03  1.1930249464726364e-03  1.1930249467876127e-03  1.1930249471292804e-03  1.1930249474742143e-03  1.1930249477920135e-03  1.1930249480494547e-03  1.1930249482162527e-03  1.1930249482710511e-03  1.1930249482059480e-03  1.1930249480281503e-03  1.1930249477582538e-03  1.1930249474257618e-03  1.1930249470632425e-03  1.1930249467009227e-03  1.1930249463627492e-03  1.1930249460645683e-03  1.1930249458142177e-03  1.1930249456128966e-03  1.1930249454571386e-03  1.1930249453407972e-03  1.1930249452566876e-03  1.1930249451977365e-03  1.1930249451576544e-03  1.1930249451312261e-03  1.1930249451143550e-03  1.1930249451039131e-03  1.1930249450976379e-03  1.1930249450939128e-03  1.1930249450916120e-03  1.1930249450899902e-03  1.1930249450885812e-03  1.1930249450871244e-03  1.1930249450855081e-03  1.1930249450837211e-03  1.1930249450818155e-03  1.1930249450798748e-03  1.1930249450779994e-03  1.1930249450762505e-03  1.1930249450747079e-03  1.1930249450734245e-03  1.1930249450724292e-03  1.1930249450717500e-03  1.1930249450714213e-03  3.5706265676838543e-03  1.1930249450684094e-03  5.9686289583863188e-04  5.9686289583863210e-04  5.9686289583863242e-04  5.9686289583863264e-04  5.9686289583863394e-04  5.9686289583863491e-04  5.9686289583863719e-04  5.9686289583864109e-04  5.9686289583864652e-04  5.9686289583865530e-04  5.9686289583866961e-04  5.9686289583869010e-04  5.9686289583872100e-04  5.9686289583876784e-04  5.9686289583883473e-04  5.9686289583892960e-04  5.9686289583906458e-04  5.9686289583925020e-04  5.9686289583950238e-04  5.9686289583984196e-04  5.9686289584028811e-04  5.9686289584086544e-04  5.9686289584160205e-04  5.9686289584252297e-04  5.9686289584365423e-04  5.9686289584502195e-04  5.9686289584664739e-04  5.9686289584855038e-04  5.9686289585074339e-04  5.9686289585324020e-04  5.9686289585605837e-04  5.9686289585921329e-04  5.9686289586272773e-04  5.9686289586663454e-04  5.9686289587097222e-04  5.9686289587579388e-04  5.9686289588116784e-04  5.9686289588716868e-04  5.9686289589388228e-04  5.9686289590140469e-04  5.9686289590983328e-04  5.9686289591927700e-04  5.9686289592985914e-04  5.9686289594172205e-04  5.9686289595505850e-04  5.9686289597015796e-04  5.9686289598747614e-04  5.9686289600775983e-04  5.9686289603220772e-04  5.9686289606266144e-04  5.9686289610182174e-04  5.9686289615340591e-04  5.9686289622215224e-04  5.9686289631353444e-04  5.9686289643304138e-04  5.9686289658495079e-04  5.9686289677063798e-04  5.9686289698676978e-04  5.9686289722386246e-04  5.9686289746586321e-04  5.9686289769134149e-04  5.9686289787638997e-04  5.9686289799882090e-04  5.9686289804264630e-04  5.9686289800155341e-04  5.9686289788026437e-04  5.9686289769334585e-04  5.9686289746191553e-04  5.9686289720933242e-04  5.9686289695718147e-04  5.9686289672244205e-04  5.9686289651619557e-04  5.9686289634376113e-04  5.9686289620574512e-04  5.9686289609949894e-04  5.9686289602055482e-04  5.9686289596379153e-04  5.9686289592423235e-04  5.9686289589749798e-04  5.9686289587999007e-04  5.9686289586890150e-04  5.9686289586211331e-04  5.9686289585808702e-04  5.9686289585573712e-04  5.9686289585430792e-04  5.9686289585330037e-04  5.9686289585240450e-04  5.9686289585144877e-04  5.9686289585036262e-04  5.9686289584914419e-04  5.9686289584783437e-04  5.9686289584649451e-04  5.9686289584519423e-04  5.9686289584398589e-04  5.9686289584291610e-04  5.9686289584202402e-04  5.9686289584132786e-04  5.9686289584084289e-04  5.9686289584058431e-04  1.1930249450719085e-03  1.1930249450684100e-03  5.9686289583863220e-04  5.9686289583863253e-04  5.9686289583863285e-04  5.9686289583863350e-04  5.9686289583863535e-04  5.9686289583863752e-04  5.9686289583864153e-04  5.9686289583864836e-04  5.9686289583865822e-04  5.9686289583867460e-04  5.9686289583870029e-04  5.9686289583873878e-04  5.9686289583879679e-04  5.9686289583888428e-04  5.9686289583901081e-04  5.9686289583919165e-04  5.9686289583944958e-04  5.9686289583980705e-04  5.9686289584029559e-04  5.9686289584095522e-04  5.9686289584182735e-04  5.9686289584296110e-04  5.9686289584441230e-04  5.9686289584623300e-04  5.9686289584847665e-04  5.9686289585119410e-04  5.9686289585442729e-04  5.9686289585821311e-04  5.9686289586257681e-04  5.9686289586754300e-04  5.9686289587313976e-04  5.9686289587939669e-04  5.9686289588635716e-04  5.9686289589408362e-04  5.9686289590265564e-04  5.9686289591218058e-04  5.9686289592279361e-04  5.9686289593464698e-04  5.9686289594791490e-04  5.9686289596278745e-04  5.9686289597946139e-04  5.9686289599814642e-04  5.9686289601907055e-04  5.9686289604248964e-04  5.9686289606873807e-04  5.9686289609831337e-04  5.9686289613201655e-04  5.9686289617119604e-04  5.9686289621808432e-04  5.9686289627622943e-04  5.9686289635099395e-04  5.9686289644997749e-04  5.9686289658315210e-04  5.9686289676238601e-04  5.9686289700000528e-04  5.9686289730614950e-04  5.9686289768498774e-04  5.9686289813048196e-04  5.9686289862288810e-04  5.9686289912758909e-04  5.9686289959765947e-04  5.9686289998051479e-04  5.9686290022763178e-04  5.9686290030490916e-04  5.9686290020050982e-04  5.9686289992752722e-04  5.9686289952055687e-04  5.9686289902749826e-04  5.9686289849945602e-04  5.9686289798184273e-04  5.9686289750865429e-04  5.9686289710044794e-04  5.9686289676539825e-04  5.9686289650214333e-04  5.9686289630320774e-04  5.9686289615811243e-04  5.9686289605572135e-04  5.9686289598572320e-04  5.9686289593937237e-04  5.9686289590969743e-04  5.9686289589139414e-04  5.9686289588055212e-04  5.9686289587437629e-04  5.9686289587091964e-04  5.9686289586885022e-04  5.9686289586730263e-04  5.9686289586575504e-04  5.9686289586394008e-04  5.9686289586177331e-04  5.9686289585929515e-04  5.9686289585661868e-04  5.9686289585388921e-04  5.9686289585125416e-04  5.9686289584882956e-04  5.9686289584670647e-04  5.9686289584494996e-04  5.9686289584359113e-04  5.9686289584265112e-04  5.9686289584215174e-04  1.1930249450744614e-03  1.1930249450684105e-03  5.9686289583863253e-04  5.9686289583863296e-04  5.9686289583863405e-04  5.9686289583863556e-04  5.9686289583863860e-04  5.9686289583864305e-04  5.9686289583865085e-04  5.9686289583866419e-04  5.9686289583868446e-04  5.9686289583871753e-04  5.9686289583876968e-04  5.9686289583884894e-04  5.9686289583896961e-04  5.9686289583915110e-04  5.9686289583941717e-04  5.9686289583980076e-04  5.9686289584034850e-04  5.9686289584111383e-04  5.9686289584216649e-04  5.9686289584359297e-04  5.9686289584548978e-04  5.9686289584796827e-04  5.9686289585115159e-04  5.9686289585516195e-04  5.9686289586012011e-04  5.9686289586613798e-04  5.9686289587330965e-04  5.9686289588171211e-04  5.9686289589140076e-04  5.9686289590242362e-04  5.9686289591483264e-04  5.9686289592868810e-04  5.9686289594408116e-04  5.9686289596114596e-04  5.9686289598006302e-04  5.9686289600107247e-04  5.9686289602447486e-04  5.9686289605061693e-04  5.9686289607989017e-04  5.9686289611271971e-04  5.9686289614954572e-04  5.9686289619082520e-04  5.9686289623703313e-04  5.9686289628868409e-04  5.9686289634641829e-04  5.9686289641116956e-04  5.9686289648447040e-04  5.9686289656897334e-04  5.9686289666922648e-04  5.9686289679271754e-04  5.9686289695113444e-04  5.9686289716156149e-04  5.9686289744710467e-04  5.9686289783614243e-04  5.9686289835923431e-04  5.9686289904291431e-04  5.9686289990037067e-04  5.9686290092051081e-04  5.9686290205853657e-04  5.9686290323227910e-04  5.9686290432808614e-04  5.9686290521746455e-04  5.9686290578189717e-04  5.9686290593942513e-04  5.9686290566453315e-04  5.9686290499416769e-04  5.9686290401764414e-04  5.9686290285450349e-04  5.9686290162847401e-04  5.9686290044568728e-04  5.9686289938190649e-04  5.9686289847938809e-04  5.9686289775106845e-04  5.9686289718853850e-04  5.9686289677072070e-04  5.9686289647123381e-04  5.9686289626358893e-04  5.9686289612421030e-04  5.9686289603372246e-04  5.9686289597708634e-04  5.9686289594311189e-04  5.9686289592371399e-04  5.9686289591319420e-04  5.9686289590762205e-04  5.9686289590434711e-04  5.9686289590167097e-04  5.9686289589860170e-04  5.9686289589467396e-04  5.9686289588980167e-04  5.9686289588415428e-04  5.9686289587804469e-04  5.9686289587183687e-04  5.9686289586587864e-04  5.9686289586044375e-04  5.9686289585572866e-04  5.9686289585185719e-04  5.9686289584888344e-04  5.9686289584683582e-04  5.9686289584574782e-04  1.1930249450804945e-03  1.1930249450684118e-03  5.9686289583863340e-04  5.9686289583863416e-04  5.9686289583863600e-04  5.9686289583863914e-04  5.9686289583864489e-04  5.9686289583865410e-04  5.9686289583867004e-04  5.9686289583869661e-04  5.9686289583873900e-04  5.9686289583880730e-04  5.9686289583891583e-04  5.9686289583908345e-04  5.9686289583934019e-04  5.9686289583972812e-04  5.9686289584030090e-04  5.9686289584113389e-04  5.9686289584232792e-04  5.9686289584400703e-04  5.9686289584633004e-04  5.9686289584949222e-04  5.9686289585371877e-04  5.9686289585926837e-04  5.9686289586642421e-04  5.9686289587547350e-04  5.9686289588669781e-04  5.9686289590035334e-04  5.9686289591665334e-04  5.9686289593576588e-04  5.9686289595780977e-04  5.9686289598288021e-04  5.9686289601107413e-04  5.9686289604251642e-04  5.9686289607740171e-04  5.9686289611602663e-04  5.9686289615880535e-04  5.9686289620629058e-04  5.9686289625917092e-04  5.9686289631825072e-04  5.9686289638443443e-04  5.9686289645869859e-04  5.9686289654205412e-04  5.9686289663552741e-04  5.9686289674015065e-04  5.9686289685699121e-04  5.9686289698730071e-04  5.9686289713284987e-04  5.9686289729657610e-04  5.9686289748372870e-04  5.9686289770365423e-04  5.9686289797232506e-04  5.9686289831553511e-04  5.9686289877221473e-04  5.9686289939667896e-04  5.9686290025778746e-04  5.9686290143237913e-04  5.9686290299059406e-04  5.9686290497254772e-04  5.9686290735970482e-04  5.9686291004907883e-04  5.9686291284183498e-04  5.9686291545688844e-04  5.9686291757330063e-04  5.9686291889487911e-04  5.9686291921988020e-04  5.9686291849266884e-04  5.9686291681748920e-04  5.9686291442868434e-04  5.9686291162992929e-04  5.9686290872597119e-04  5.9686290596872775e-04  5.9686290352895606e-04  5.9686290149308567e-04  5.9686289987749661e-04  5.9686289865052637e-04  5.9686289775444184e-04  5.9686289712290329e-04  5.9686289669246603e-04  5.9686289640864120e-04  5.9686289622793516e-04  5.9686289611741387e-04  5.9686289605307449e-04  5.9686289601787045e-04  5.9686289599993135e-04  5.9686289599113554e-04  5.9686289598605909e-04  5.9686289598127255e-04  5.9686289597484182e-04  5.9686289596595733e-04  5.9686289595462568e-04  5.9686289594139321e-04  5.9686289592709540e-04  5.9686289591264472e-04  5.9686289589887243e-04  5.9686289588641863e-04  5.9686289587571365e-04  5.9686289586699537e-04  5.9686289586034812e-04  5.9686289585579231e-04  5.9686289585336629e-04  1.1930249450933100e-03  1.1930249450684152e-03  5.9686289583863502e-04  5.9686289583863687e-04  5.9686289583864044e-04  5.9686289583864662e-04  5.9686289583865779e-04  5.9686289583867676e-04  5.9686289583870886e-04  5.9686289583876285e-04  5.9686289583885035e-04  5.9686289583899270e-04  5.9686289583922006e-04  5.9686289583957535e-04  5.9686289584012331e-04  5.9686289584095565e-04  5.9686289584219522e-04  5.9686289584401006e-04  5.9686289584662548e-04  5.9686289585032608e-04  5.9686289585547431e-04  5.9686289586251653e-04  5.9686289587197760e-04  5.9686289588445980e-04  5.9686289590062298e-04  5.9686289592114411e-04  5.9686289594668141e-04  5.9686289597782793e-04  5.9686289601507115e-04  5.9686289605877837e-04  5.9686289610920017e-04  5.9686289616651814e-04  5.9686289623091032e-04  5.9686289630262823e-04  5.9686289638208854e-04  5.9686289646995229e-04  5.9686289656717085e-04  5.9686289667502110e-04  5.9686289679509866e-04  5.9686289692927638e-04  5.9686289707965587e-04  5.9686289724849933e-04  5.9686289743814266e-04  5.9686289765092341e-04  5.9686289788912414e-04  5.9686289815499014e-04  5.9686289845096996e-04  5.9686289878035741e-04  5.9686289914864181e-04  5.9686289956599307e-04  5.9686290005133130e-04  5.9686290063836497e-04  5.9686290138360489e-04  5.9686290237534348e-04  5.9686290374091032e-04  5.9686290564718721e-04  5.9686290828728195e-04  5.9686291184616572e-04  5.9686291644231730e-04  5.9686292205258465e-04  5.9686292844131112e-04  5.9686293512546803e-04  5.9686294140567475e-04  5.9686294647471412e-04  5.9686294958672574e-04  5.9686295024148433e-04  5.9686294832003511e-04  5.9686294411580060e-04  5.9686293824666372e-04  5.9686293148714369e-04  5.9686292458895041e-04  5.9686291814845850e-04  5.9686291254629480e-04  5.9686290795196424e-04  5.9686290436910476e-04  5.9686290169503351e-04  5.9686289977561142e-04  5.9686289844598350e-04  5.9686289755540964e-04  5.9686289697879222e-04  5.9686289661907974e-04  5.9686289640454389e-04  5.9686289628393821e-04  5.9686289622143006e-04  5.9686289619231402e-04  5.9686289617978412e-04  5.9686289617269007e-04  5.9686289616407554e-04  5.9686289615017434e-04  5.9686289612965397e-04  5.9686289610295755e-04  5.9686289607168504e-04  5.9686289603801547e-04  5.9686289600421243e-04  5.9686289597225969e-04  5.9686289594363523e-04  5.9686289591926801e-04  5.9686289589960155e-04  5.9686289588472673e-04  5.9686289587458597e-04  5.9686289586917461e-04  1.1930249451198470e-03  1.1930249450684198e-03  5.9686289583863773e-04  5.9686289583864120e-04  5.9686289583864814e-04  5.9686289583866050e-04  5.9686289583868273e-04  5.9686289583872046e-04  5.9686289583878518e-04  5.9686289583889480e-04  5.9686289583907532e-04  5.9686289583937076e-04  5.9686289583984629e-04  5.9686289584059710e-04  5.9686289584176490e-04  5.9686289584355090e-04  5.9686289584623083e-04  5.9686289585018221e-04  5.9686289585590994e-04  5.9686289586406368e-04  5.9686289587547101e-04  5.9686289589115605e-04  5.9686289591233800e-04  5.9686289594042252e-04  5.9686289597695385e-04  5.9686289602352705e-04  5.9686289608168756e-04  5.9686289615281469e-04  5.9686289623802193e-04  5.9686289633811450e-04  5.9686289645360490e-04  5.9686289658482080e-04  5.9686289673207063e-04  5.9686289689584175e-04  5.9686289707702224e-04  5.9686289727708670e-04  5.9686289749822079e-04  5.9686289774338319e-04  5.9686289801628403e-04  5.9686289832128930e-04  5.9686289866329306e-04  5.9686289904755155e-04  5.9686289947948165e-04  5.9686289996445201e-04  5.9686290050757918e-04  5.9686290111364711e-04  5.9686290178743268e-04  5.9686290253487602e-04  5.9686290336580542e-04  5.9686290429924202e-04  5.9686290537252064e-04  5.9686290665547756e-04  5.9686290827026876e-04  5.9686291041519059e-04  5.9686291338667899e-04  5.9686291758729746e-04  5.9686292350084316e-04  5.9686293161331078e-04  5.9686294226752906e-04  5.9686295546576725e-04  5.9686297067456512e-04  5.9686298671937914e-04  5.9686300185388499e-04  5.9686301403840195e-04  5.9686302138460480e-04  5.9686302264582651e-04  5.9686301757677185e-04  5.9686300700222670e-04  5.9686299255689082e-04  5.9686297621937691e-04  5.9686295984045590e-04  5.9686294482139092e-04  5.9686293199401406e-04  5.9686292166632505e-04  5.9686291375922484e-04  5.9686290796453481e-04  5.9686290387956753e-04  5.9686290110003680e-04  5.9686289927170547e-04  5.9686289811033196e-04  5.9686289740157490e-04  5.9686289699078577e-04  5.9686289676959378e-04  5.9686289666326282e-04  5.9686289662064815e-04  5.9686289660705453e-04  5.9686289659954567e-04  5.9686289658400580e-04  5.9686289655316860e-04  5.9686289650508597e-04  5.9686289644171229e-04  5.9686289636749464e-04  5.9686289628802316e-04  5.9686289620886697e-04  5.9686289613473259e-04  5.9686289606898982e-04  5.9686289601360454e-04  5.9686289596934600e-04  5.9686289593616443e-04  5.9686289591367981e-04  5.9686289590166620e-04  1.1930249451742158e-03  1.1930249450684302e-03  5.9686289583864337e-04  5.9686289583865009e-04  5.9686289583866321e-04  5.9686289583868739e-04  5.9686289583873087e-04  5.9686289583880622e-04  5.9686289583893654e-04  5.9686289583915793e-04  5.9686289583952786e-04  5.9686289584013859e-04  5.9686289584113010e-04  5.9686289584271162e-04  5.9686289584519249e-04  5.9686289584901582e-04  5.9686289585479831e-04  5.9686289586338584e-04  5.9686289587591206e-04  5.9686289589385355e-04  5.9686289591909876e-04  5.9686289595399901e-04  5.9686289600138288e-04  5.9686289606453136e-04  5.9686289614706918e-04  5.9686289625275949e-04  5.9686289638524054e-04  5.9686289654773035e-04  5.9686289674277539e-04  5.9686289697213327e-04  5.9686289723682073e-04  5.9686289753737112e-04  5.9686289787424856e-04  5.9686289824835328e-04  5.9686289866155693e-04  5.9686289911715571e-04  5.9686289962017087e-04  5.9686290017747301e-04  5.9686290079770832e-04  5.9686290149106320e-04  5.9686290226894205e-04  5.9686290314357781e-04  5.9686290412756663e-04  5.9686290523332296e-04  5.9686290647246521e-04  5.9686290785534643e-04  5.9686290939129890e-04  5.9686291109059043e-04  5.9686291296971901e-04  5.9686291506246968e-04  5.9686291743995255e-04  5.9686292024335155e-04  5.9686292373213666e-04  5.9686292834604010e-04  5.9686293476896935e-04  5.9686294396604279e-04  5.9686295714441633e-04  5.9686297557620400e-04  5.9686300023879129e-04  5.9686303129602176e-04  5.9686306755917851e-04  5.9686310617147850e-04  5.9686314275855475e-04  5.9686317214424525e-04  5.9686318952213312e-04  5.9686319176820298e-04  5.9686317840636975e-04  5.9686315175542886e-04  5.9686311615545450e-04  5.9686307666626697e-04  5.9686303782922727e-04  5.9686300290173982e-04  5.9686297365061421e-04  5.9686295055780259e-04  5.9686293321886826e-04  5.9686292075401110e-04  5.9686291213132780e-04  5.9686290637266342e-04  5.9686290265551910e-04  5.9686290034162296e-04  5.9686289896318241e-04  5.9686289819068262e-04  5.9686289779745832e-04  5.9686289762900799e-04  5.9686289758002775e-04  5.9686289757900166e-04  5.9686289757867922e-04  5.9686289755039033e-04  5.9686289748029731e-04  5.9686289736631459e-04  5.9686289721501548e-04  5.9686289703837433e-04  5.9686289685056103e-04  5.9686289666518219e-04  5.9686289649333040e-04  5.9686289634259648e-04  5.9686289621702819e-04  5.9686289611776753e-04  5.9686289604406477e-04  5.9686289599446556e-04  5.9686289596795606e-04  1.1930249452847361e-03  1.1930249450684486e-03  5.9686289583865389e-04  5.9686289583866657e-04  5.9686289583869216e-04  5.9686289583873921e-04  5.9686289583882389e-04  5.9686289583897286e-04  5.9686289583923263e-04  5.9686289583967868e-04  5.9686289584043198e-04  5.9686289584168781e-04  5.9686289584374704e-04  5.9686289584706426e-04  5.9686289585231570e-04  5.9686289586047801e-04  5.9686289587292368e-04  5.9686289589154496e-04  5.9686289591888940e-04  5.9686289595830210e-04  5.9686289601408647e-04  5.9686289609163880e-04  5.96862896197