<?xml version="1.0"?>
<VTKFile type="UnstructuredGrid"  version="0.1"  >
<UnstructuredGrid>
<Piece  NumberOfPoints="5151" NumberOfCells="10000">
<Points>
<DataArray  type="Float64"  NumberOfComponents="3"  format="ascii">0 0 0  0.02 0 0  0.04 0 0  0.06 0 0  0.08 0 0  0.1 0 0  0.12 0 0  0.14 0 0  0.16 0 0  0.18 0 0  0.2 0 0  0.22 0 0  0.24 0 0  0.26 0 0  0.28 0 0  0.3 0 0  0.32 0 0  0.34 0 0  0.36 0 0  0.38 0 0  0.4 0 0  0.42 0 0  0.44 0 0  0.46 0 0  0.48 0 0  0.5 0 0  0.52 0 0  0.54 0 0  0.5600000000000001 0 0  0.58 0 0  0.6 0 0  0.62 0 0  0.64 0 0  0.66 0 0  0.68 0 0  0.7 0 0  0.72 0 0  0.74 0 0  0.76 0 0  0.78 0 0  0.8 0 0  0.82 0 0  0.84 0 0  0.86 0 0  0.88 0 0  0.9 0 0  0.92 0 0  0.9399999999999999 0 0  0.96 0 0  0.98 0 0  1 0 0  1.02 0 0  1.04 0 0  1.06 0 0  1.08 0 0  1.1 0 0  1.12 0 0  1.14 0 0  1.16 0 0  1.18 0 0  1.2 0 0  1.22 0 0  1.24 0 0  1.26 0 0  1.28 0 0  1.3 0 0  1.32 0 0  1.34 0 0  1.36 0 0  1.38 0 0  1.4 0 0  1.42 0 0  1.44 0 0  1.46 0 0  1.48 0 0  1.5 0 0  1.52 0 0  1.54 0 0  1.56 0 0  1.58 0 0  1.6 0 0  1.62 0 0  1.64 0 0  1.66 0 0  1.68 0 0  1.7 0 0  1.72 0 0  1.74 0 0  1.76 0 0  1.78 0 0  1.8 0 0  1.82 0 0  1.84 0 0  1.86 0 0  1.88 0 0  1.9 0 0  1.92 0 0  1.94 0 0  1.96 0 0  1.98 0 0  2 0 0  0 0.02 0  0.02 0.02 0  0.04 0.02 0  0.06 0.02 0  0.08 0.02 0  0.1 0.02 0  0.12 0.02 0  0.14 0.02 0  0.16 0.02 0  0.18 0.02 0  0.2 0.02 0  0.22 0.02 0  0.24 0.02 0  0.26 0.02 0  0.28 0.02 0  0.3 0.02 0  0.32 0.02 0  0.34 0.02 0  0.36 0.02 0  0.38 0.02 0  0.4 0.02 0  0.42 0.02 0  0.44 0.02 0  0.46 0.02 0  0.48 0.02 0  0.5 0.02 0  0.52 0.02 0  0.54 0.02 0  0.5600000000000001 0.02 0  0.58 0.02 0  0.6 0.02 0  0.62 0.02 0  0.64 0.02 0  0.66 0.02 0  0.68 0.02 0  0.7 0.02 0  0.72 0.02 0  0.74 0.02 0  0.76 0.02 0  0.78 0.02 0  0.8 0.02 0  0.82 0.02 0  0.84 0.02 0  0.86 0.02 0  0.88 0.02 0  0.9 0.02 0  0.92 0.02 0  0.9399999999999999 0.02 0  0.96 0.02 0  0.98 0.02 0  1 0.02 0  1.02 0.02 0  1.04 0.02 0  1.06 0.02 0  1.08 0.02 0  1.1 0.02 0  1.12 0.02 0  1.14 0.02 0  1.16 0.02 0  1.18 0.02 0  1.2 0.02 0  1.22 0.02 0  1.24 0.02 0  1.26 0.02 0  1.28 0.02 0  1.3 0.02 0  1.32 0.02 0  1.34 0.02 0  1.36 0.02 0  1.38 0.02 0  1.4 0.02 0  1.42 0.02 0  1.44 0.02 0  1.46 0.02 0  1.48 0.02 0  1.5 0.02 0  1.52 0.02 0  1.54 0.02 0  1.56 0.02 0  1.58 0.02 0  1.6 0.02 0  1.62 0.02 0  1.64 0.02 0  1.66 0.02 0  1.68 0.02 0  1.7 0.02 0  1.72 0.02 0  1.74 0.02 0  1.76 0.02 0  1.78 0.02 0  1.8 0.02 0  1.82 0.02 0  1.84 0.02 0  1.86 0.02 0  1.88 0.02 0  1.9 0.02 0  1.92 0.02 0  1.94 0.02 0  1.96 0.02 0  1.98 0.02 0  2 0.02 0  0 0.04 0  0.02 0.04 0  0.04 0.04 0  0.06 0.04 0  0.08 0.04 0  0.1 0.04 0  0.12 0.04 0  0.14 0.04 0  0.16 0.04 0  0.18 0.04 0  0.2 0.04 0  0.22 0.04 0  0.24 0.04 0  0.26 0.04 0  0.28 0.04 0  0.3 0.04 0  0.32 0.04 0  0.34 0.04 0  0.36 0.04 0  0.38 0.04 0  0.4 0.04 0  0.42 0.04 0  0.44 0.04 0  0.46 0.04 0  0.48 0.04 0  0.5 0.04 0  0.52 0.04 0  0.54 0.04 0  0.5600000000000001 0.04 0  0.58 0.04 0  0.6 0.04 0  0.62 0.04 0  0.64 0.04 0  0.66 0.04 0  0.68 0.04 0  0.7 0.04 0  0.72 0.04 0  0.74 0.04 0  0.76 0.04 0  0.78 0.04 0  0.8 0.04 0  0.82 0.04 0  0.84 0.04 0  0.86 0.04 0  0.88 0.04 0  0.9 0.04 0  0.92 0.04 0  0.9399999999999999 0.04 0  0.96 0.04 0  0.98 0.04 0  1 0.04 0  1.02 0.04 0  1.04 0.04 0  1.06 0.04 0  1.08 0.04 0  1.1 0.04 0  1.12 0.04 0  1.14 0.04 0  1.16 0.04 0  1.18 0.04 0  1.2 0.04 0  1.22 0.04 0  1.24 0.04 0  1.26 0.04 0  1.28 0.04 0  1.3 0.04 0  1.32 0.04 0  1.34 0.04 0  1.36 0.04 0  1.38 0.04 0  1.4 0.04 0  1.42 0.04 0  1.44 0.04 0  1.46 0.04 0  1.48 0.04 0  1.5 0.04 0  1.52 0.04 0  1.54 0.04 0  1.56 0.04 0  1.58 0.04 0  1.6 0.04 0  1.62 0.04 0  1.64 0.04 0  1.66 0.04 0  1.68 0.04 0  1.7 0.04 0  1.72 0.04 0  1.74 0.04 0  1.76 0.04 0  1.78 0.04 0  1.8 0.04 0  1.82 0.04 0  1.84 0.04 0  1.86 0.04 0  1.88 0.04 0  1.9 0.04 0  1.92 0.04 0  1.94 0.04 0  1.96 0.04 0  1.98 0.04 0  2 0.04 0  0 0.06 0  0.02 0.06 0  0.04 0.06 0  0.06 0.06 0  0.08 0.06 0  0.1 0.06 0  0.12 0.06 0  0.14 0.06 0  0.16 0.06 0  0.18 0.06 0  0.2 0.06 0  0.22 0.06 0  0.24 0.06 0  0.26 0.06 0  0.28 0.06 0  0.3 0.06 0  0.32 0.06 0  0.34 0.06 0  0.36 0.06 0  0.38 0.06 0  0.4 0.06 0  0.42 0.06 0  0.44 0.06 0  0.46 0.06 0  0.48 0.06 0  0.5 0.06 0  0.52 0.06 0  0.54 0.06 0  0.5600000000000001 0.06 0  0.58 0.06 0  0.6 0.06 0  0.62 0.06 0  0.64 0.06 0  0.66 0.06 0  0.68 0.06 0  0.7 0.06 0  0.72 0.06 0  0.74 0.06 0  0.76 0.06 0  0.78 0.06 0  0.8 0.06 0  0.82 0.06 0  0.84 0.06 0  0.86 0.06 0  0.88 0.06 0  0.9 0.06 0  0.92 0.06 0  0.9399999999999999 0.06 0  0.96 0.06 0  0.98 0.06 0  1 0.06 0  1.02 0.06 0  1.04 0.06 0  1.06 0.06 0  1.08 0.06 0  1.1 0.06 0  1.12 0.06 0  1.14 0.06 0  1.16 0.06 0  1.18 0.06 0  1.2 0.06 0  1.22 0.06 0  1.24 0.06 0  1.26 0.06 0  1.28 0.06 0  1.3 0.06 0  1.32 0.06 0  1.34 0.06 0  1.36 0.06 0  1.38 0.06 0  1.4 0.06 0  1.42 0.06 0  1.44 0.06 0  1.46 0.06 0  1.48 0.06 0  1.5 0.06 0  1.52 0.06 0  1.54 0.06 0  1.56 0.06 0  1.58 0.06 0  1.6 0.06 0  1.62 0.06 0  1.64 0.06 0  1.66 0.06 0  1.68 0.06 0  1.7 0.06 0  1.72 0.06 0  1.74 0.06 0  1.76 0.06 0  1.78 0.06 0  1.8 0.06 0  1.82 0.06 0  1.84 0.06 0  1.86 0.06 0  1.88 0.06 0  1.9 0.06 0  1.92 0.06 0  1.94 0.06 0  1.96 0.06 0  1.98 0.06 0  2 0.06 0  0 0.08 0  0.02 0.08 0  0.04 0.08 0  0.06 0.08 0  0.08 0.08 0  0.1 0.08 0  0.12 0.08 0  0.14 0.08 0  0.16 0.08 0  0.18 0.08 0  0.2 0.08 0  0.22 0.08 0  0.24 0.08 0  0.26 0.08 0  0.28 0.08 0  0.3 0.08 0  0.32 0.08 0  0.34 0.08 0  0.36 0.08 0  0.38 0.08 0  0.4 0.08 0  0.42 0.08 0  0.44 0.08 0  0.46 0.08 0  0.48 0.08 0  0.5 0.08 0  0.52 0.08 0  0.54 0.08 0  0.5600000000000001 0.08 0  0.58 0.08 0  0.6 0.08 0  0.62 0.08 0  0.64 0.08 0  0.66 0.08 0  0.68 0.08 0  0.7 0.08 0  0.72 0.08 0  0.74 0.08 0  0.76 0.08 0  0.78 0.08 0  0.8 0.08 0  0.82 0.08 0  0.84 0.08 0  0.86 0.08 0  0.88 0.08 0  0.9 0.08 0  0.92 0.08 0  0.9399999999999999 0.08 0  0.96 0.08 0  0.98 0.08 0  1 0.08 0  1.02 0.08 0  1.04 0.08 0  1.06 0.08 0  1.08 0.08 0  1.1 0.08 0  1.12 0.08 0  1.14 0.08 0  1.16 0.08 0  1.18 0.08 0  1.2 0.08 0  1.22 0.08 0  1.24 0.08 0  1.26 0.08 0  1.28 0.08 0  1.3 0.08 0  1.32 0.08 0  1.34 0.08 0  1.36 0.08 0  1.38 0.08 0  1.4 0.08 0  1.42 0.08 0  1.44 0.08 0  1.46 0.08 0  1.48 0.08 0  1.5 0.08 0  1.52 0.08 0  1.54 0.08 0  1.56 0.08 0  1.58 0.08 0  1.6 0.08 0  1.62 0.08 0  1.64 0.08 0  1.66 0.08 0  1.68 0.08 0  1.7 0.08 0  1.72 0.08 0  1.74 0.08 0  1.76 0.08 0  1.78 0.08 0  1.8 0.08 0  1.82 0.08 0  1.84 0.08 0  1.86 0.08 0  1.88 0.08 0  1.9 0.08 0  1.92 0.08 0  1.94 0.08 0  1.96 0.08 0  1.98 0.08 0  2 0.08 0  0 0.1 0  0.02 0.1 0  0.04 0.1 0  0.06 0.1 0  0.08 0.1 0  0.1 0.1 0  0.12 0.1 0  0.14 0.1 0  0.16 0.1 0  0.18 0.1 0  0.2 0.1 0  0.22 0.1 0  0.24 0.1 0  0.26 0.1 0  0.28 0.1 0  0.3 0.1 0  0.32 0.1 0  0.34 0.1 0  0.36 0.1 0  0.38 0.1 0  0.4 0.1 0  0.42 0.1 0  0.44 0.1 0  0.46 0.1 0  0.48 0.1 0  0.5 0.1 0  0.52 0.1 0  0.54 0.1 0  0.5600000000000001 0.1 0  0.58 0.1 0  0.6 0.1 0  0.62 0.1 0  0.64 0.1 0  0.66 0.1 0  0.68 0.1 0  0.7 0.1 0  0.72 0.1 0  0.74 0.1 0  0.76 0.1 0  0.78 0.1 0  0.8 0.1 0  0.82 0.1 0  0.84 0.1 0  0.86 0.1 0  0.88 0.1 0  0.9 0.1 0  0.92 0.1 0  0.9399999999999999 0.1 0  0.96 0.1 0  0.98 0.1 0  1 0.1 0  1.02 0.1 0  1.04 0.1 0  1.06 0.1 0  1.08 0.1 0  1.1 0.1 0  1.12 0.1 0  1.14 0.1 0  1.16 0.1 0  1.18 0.1 0  1.2 0.1 0  1.22 0.1 0  1.24 0.1 0  1.26 0.1 0  1.28 0.1 0  1.3 0.1 0  1.32 0.1 0  1.34 0.1 0  1.36 0.1 0  1.38 0.1 0  1.4 0.1 0  1.42 0.1 0  1.44 0.1 0  1.46 0.1 0  1.48 0.1 0  1.5 0.1 0  1.52 0.1 0  1.54 0.1 0  1.56 0.1 0  1.58 0.1 0  1.6 0.1 0  1.62 0.1 0  1.64 0.1 0  1.66 0.1 0  1.68 0.1 0  1.7 0.1 0  1.72 0.1 0  1.74 0.1 0  1.76 0.1 0  1.78 0.1 0  1.8 0.1 0  1.82 0.1 0  1.84 0.1 0  1.86 0.1 0  1.88 0.1 0  1.9 0.1 0  1.92 0.1 0  1.94 0.1 0  1.96 0.1 0  1.98 0.1 0  2 0.1 0  0 0.12 0  0.02 0.12 0  0.04 0.12 0  0.06 0.12 0  0.08 0.12 0  0.1 0.12 0  0.12 0.12 0  0.14 0.12 0  0.16 0.12 0  0.18 0.12 0  0.2 0.12 0  0.22 0.12 0  0.24 0.12 0  0.26 0.12 0  0.28 0.12 0  0.3 0.12 0  0.32 0.12 0  0.34 0.12 0  0.36 0.12 0  0.38 0.12 0  0.4 0.12 0  0.42 0.12 0  0.44 0.12 0  0.46 0.12 0  0.48 0.12 0  0.5 0.12 0  0.52 0.12 0  0.54 0.12 0  0.5600000000000001 0.12 0  0.58 0.12 0  0.6 0.12 0  0.62 0.12 0  0.64 0.12 0  0.66 0.12 0  0.68 0.12 0  0.7 0.12 0  0.72 0.12 0  0.74 0.12 0  0.76 0.12 0  0.78 0.12 0  0.8 0.12 0  0.82 0.12 0  0.84 0.12 0  0.86 0.12 0  0.88 0.12 0  0.9 0.12 0  0.92 0.12 0  0.9399999999999999 0.12 0  0.96 0.12 0  0.98 0.12 0  1 0.12 0  1.02 0.12 0  1.04 0.12 0  1.06 0.12 0  1.08 0.12 0  1.1 0.12 0  1.12 0.12 0  1.14 0.12 0  1.16 0.12 0  1.18 0.12 0  1.2 0.12 0  1.22 0.12 0  1.24 0.12 0  1.26 0.12 0  1.28 0.12 0  1.3 0.12 0  1.32 0.12 0  1.34 0.12 0  1.36 0.12 0  1.38 0.12 0  1.4 0.12 0  1.42 0.12 0  1.44 0.12 0  1.46 0.12 0  1.48 0.12 0  1.5 0.12 0  1.52 0.12 0  1.54 0.12 0  1.56 0.12 0  1.58 0.12 0  1.6 0.12 0  1.62 0.12 0  1.64 0.12 0  1.66 0.12 0  1.68 0.12 0  1.7 0.12 0  1.72 0.12 0  1.74 0.12 0  1.76 0.12 0  1.78 0.12 0  1.8 0.12 0  1.82 0.12 0  1.84 0.12 0  1.86 0.12 0  1.88 0.12 0  1.9 0.12 0  1.92 0.12 0  1.94 0.12 0  1.96 0.12 0  1.98 0.12 0  2 0.12 0  0 0.14 0  0.02 0.14 0  0.04 0.14 0  0.06 0.14 0  0.08 0.14 0  0.1 0.14 0  0.12 0.14 0  0.14 0.14 0  0.16 0.14 0  0.18 0.14 0  0.2 0.14 0  0.22 0.14 0  0.24 0.14 0  0.26 0.14 0  0.28 0.14 0  0.3 0.14 0  0.32 0.14 0  0.34 0.14 0  0.36 0.14 0  0.38 0.14 0  0.4 0.14 0  0.42 0.14 0  0.44 0.14 0  0.46 0.14 0  0.48 0.14 0  0.5 0.14 0  0.52 0.14 0  0.54 0.14 0  0.5600000000000001 0.14 0  0.58 0.14 0  0.6 0.14 0  0.62 0.14 0  0.64 0.14 0  0.66 0.14 0  0.68 0.14 0  0.7 0.14 0  0.72 0.14 0  0.74 0.14 0  0.76 0.14 0  0.78 0.14 0  0.8 0.14 0  0.82 0.14 0  0.84 0.14 0  0.86 0.14 0  0.88 0.14 0  0.9 0.14 0  0.92 0.14 0  0.9399999999999999 0.14 0  0.96 0.14 0  0.98 0.14 0  1 0.14 0  1.02 0.14 0  1.04 0.14 0  1.06 0.14 0  1.08 0.14 0  1.1 0.14 0  1.12 0.14 0  1.14 0.14 0  1.16 0.14 0  1.18 0.14 0  1.2 0.14 0  1.22 0.14 0  1.24 0.14 0  1.26 0.14 0  1.28 0.14 0  1.3 0.14 0  1.32 0.14 0  1.34 0.14 0  1.36 0.14 0  1.38 0.14 0  1.4 0.14 0  1.42 0.14 0  1.44 0.14 0  1.46 0.14 0  1.48 0.14 0  1
[...]
<PointData  Scalars="sols[i]"> 
<DataArray  type="Float64"  Name="sols[i]"  format="ascii">1.7884750336748603e-03  1.1930238061720454e-03  1.1930238061720459e-03  1.1930238061720459e-03  1.1930238061720467e-03  1.1930238061720489e-03  1.1930238061720502e-03  1.1930238061720545e-03  1.1930238061720604e-03  1.1930238061720691e-03  1.1930238061720840e-03  1.1930238061721070e-03  1.1930238061721391e-03  1.1930238061721890e-03  1.1930238061722638e-03  1.1930238061723681e-03  1.1930238061725166e-03  1.1930238061727281e-03  1.1930238061730149e-03  1.1930238061734042e-03  1.1930238061739267e-03  1.1930238061746083e-03  1.1930238061754876e-03  1.1930238061766054e-03  1.1930238061779953e-03  1.1930238061796984e-03  1.1930238061817519e-03  1.1930238061841853e-03  1.1930238061870306e-03  1.1930238061903015e-03  1.1930238061940248e-03  1.1930238061982259e-03  1.1930238062029287e-03  1.1930238062081698e-03  1.1930238062140008e-03  1.1930238062204735e-03  1.1930238062276748e-03  1.1930238062357031e-03  1.1930238062446686e-03  1.1930238062546981e-03  1.1930238062659352e-03  1.1930238062785199e-03  1.1930238062926228e-03  1.1930238063084327e-03  1.1930238063261780e-03  1.1930238063461757e-03  1.1930238063689084e-03  1.1930238063951233e-03  1.1930238064260393e-03  1.1930238064635592e-03  1.1930238065105472e-03  1.1930238065711080e-03  1.1930238066507541e-03  1.1930238067563322e-03  1.1930238068955129e-03  1.1930238070756761e-03  1.1930238073021248e-03  1.1930238075757184e-03  1.1930238078905245e-03  1.1930238082320035e-03  1.1930238085767425e-03  1.1930238088943565e-03  1.1930238091516401e-03  1.1930238093183256e-03  1.1930238093730700e-03  1.1930238093079773e-03  1.1930238091302529e-03  1.1930238088604824e-03  1.1930238085281540e-03  1.1930238081658186e-03  1.1930238078036860e-03  1.1930238074656895e-03  1.1930238071676661e-03  1.1930238069174487e-03  1.1930238067162351e-03  1.1930238065605606e-03  1.1930238064442817e-03  1.1930238063602172e-03  1.1930238063012977e-03  1.1930238062612371e-03  1.1930238062348229e-03  1.1930238062179610e-03  1.1930238062075244e-03  1.1930238062012528e-03  1.1930238061975298e-03  1.1930238061952302e-03  1.1930238061936098e-03  1.1930238061922018e-03  1.1930238061907462e-03  1.1930238061891312e-03  1.1930238061873457e-03  1.1930238061854416e-03  1.1930238061835024e-03  1.1930238061816285e-03  1.1930238061798810e-03  1.1930238061783395e-03  1.1930238061770568e-03  1.1930238061760624e-03  1.1930238061753837e-03  1.1930238061750552e-03  3.5705958091459878e-03  1.1930238061720454e-03  5.9686275328476462e-04  5.9686275328476484e-04  5.9686275328476516e-04  5.9686275328476538e-04  5.9686275328476668e-04  5.9686275328476766e-04  5.9686275328476993e-04  5.9686275328477384e-04  5.9686275328477926e-04  5.9686275328478804e-04  5.9686275328480235e-04  5.9686275328482284e-04  5.9686275328485374e-04  5.9686275328490058e-04  5.9686275328496748e-04  5.9686275328506234e-04  5.9686275328519733e-04  5.9686275328538283e-04  5.9686275328563502e-04  5.9686275328597448e-04  5.9686275328642052e-04  5.9686275328699775e-04  5.9686275328773425e-04  5.9686275328865496e-04  5.9686275328978600e-04  5.9686275329115350e-04  5.9686275329277872e-04  5.9686275329468149e-04  5.9686275329687418e-04  5.9686275329937078e-04  5.9686275330218873e-04  5.9686275330534332e-04  5.9686275330885765e-04  5.9686275331276425e-04  5.9686275331710182e-04  5.9686275332192348e-04  5.9686275332729744e-04  5.9686275333329839e-04  5.9686275334001220e-04  5.9686275334753494e-04  5.9686275335596396e-04  5.9686275336540823e-04  5.9686275337599091e-04  5.9686275338785447e-04  5.9686275340119146e-04  5.9686275341629103e-04  5.9686275343360867e-04  5.9686275345389051e-04  5.9686275347833439e-04  5.9686275350878074e-04  5.9686275354792857e-04  5.9686275359949290e-04  5.9686275366820942e-04  5.9686275375954868e-04  5.9686275387899653e-04  5.9686275403082831e-04  5.9686275421641803e-04  5.9686275443243415e-04  5.9686275466939705e-04  5.9686275491126217e-04  5.9686275513661001e-04  5.9686275532154628e-04  5.9686275544389568e-04  5.9686275548768031e-04  5.9686275544659198e-04  5.9686275532535183e-04  5.9686275513851973e-04  5.9686275490720237e-04  5.9686275465474633e-04  5.9686275440272473e-04  5.9686275416810717e-04  5.9686275396196868e-04  5.9686275378962499e-04  5.9686275365168195e-04  5.9686275354549193e-04  5.9686275346658955e-04  5.9686275340985618e-04  5.9686275337031771e-04  5.9686275334359723e-04  5.9686275332609831e-04  5.9686275331501527e-04  5.9686275330823044e-04  5.9686275330420610e-04  5.9686275330185739e-04  5.9686275330042896e-04  5.9686275329942206e-04  5.9686275329852683e-04  5.9686275329757176e-04  5.9686275329648647e-04  5.9686275329526902e-04  5.9686275329396028e-04  5.9686275329262140e-04  5.9686275329132209e-04  5.9686275329011473e-04  5.9686275328904570e-04  5.9686275328815427e-04  5.9686275328745865e-04  5.9686275328697401e-04  5.9686275328671564e-04  1.1930238061755422e-03  1.1930238061720461e-03  5.9686275328476495e-04  5.9686275328476527e-04  5.9686275328476560e-04  5.9686275328476625e-04  5.9686275328476809e-04  5.9686275328477026e-04  5.9686275328477427e-04  5.9686275328478110e-04  5.9686275328479097e-04  5.9686275328480734e-04  5.9686275328483303e-04  5.9686275328487152e-04  5.9686275328492953e-04  5.9686275328501713e-04  5.9686275328514366e-04  5.9686275328532440e-04  5.9686275328558233e-04  5.9686275328593979e-04  5.9686275328642822e-04  5.9686275328708774e-04  5.9686275328795966e-04  5.9686275328909330e-04  5.9686275329054418e-04  5.9686275329236466e-04  5.9686275329460798e-04  5.9686275329732510e-04  5.9686275330055798e-04  5.9686275330434347e-04  5.9686275330870684e-04  5.9686275331367270e-04  5.9686275331926925e-04  5.9686275332552596e-04  5.9686275333248632e-04  5.9686275334021278e-04  5.9686275334878503e-04  5.9686275335831028e-04  5.9686275336892386e-04  5.9686275338077799e-04  5.9686275339404689e-04  5.9686275340892062e-04  5.9686275342559620e-04  5.9686275344428307e-04  5.9686275346520937e-04  5.9686275348863073e-04  5.9686275351488133e-04  5.9686275354445826e-04  5.9686275357816198e-04  5.9686275361733963e-04  5.9686275366422215e-04  5.9686275372235502e-04  5.9686275379709753e-04  5.9686275389604475e-04  5.9686275402916287e-04  5.9686275420831373e-04  5.9686275444581645e-04  5.9686275475180498e-04  5.9686275513044546e-04  5.9686275557570192e-04  5.9686275606783961e-04  5.9686275657225827e-04  5.9686275704205684e-04  5.9686275742467938e-04  5.9686275767163038e-04  5.9686275774882948e-04  5.9686275764444944e-04  5.9686275737157960e-04  5.9686275696479898e-04  5.9686275647198215e-04  5.9686275594420619e-04  5.9686275542685852e-04  5.9686275495391555e-04  5.9686275454592236e-04  5.9686275421104819e-04  5.9686275394793130e-04  5.9686275374909979e-04  5.9686275360407994e-04  5.9686275350174167e-04  5.9686275343177918e-04  5.9686275338545133e-04  5.9686275335579071e-04  5.9686275333749588e-04  5.9686275332665852e-04  5.9686275332048518e-04  5.9686275331702972e-04  5.9686275331496106e-04  5.9686275331341423e-04  5.9686275331186762e-04  5.9686275331005396e-04  5.9686275330788881e-04  5.9686275330541249e-04  5.9686275330273809e-04  5.9686275330001067e-04  5.9686275329737758e-04  5.9686275329495482e-04  5.9686275329283336e-04  5.9686275329107815e-04  5.9686275328972029e-04  5.9686275328878094e-04  5.9686275328828188e-04  1.1930238061780931e-03  1.1930238061720465e-03  5.9686275328476527e-04  5.9686275328476571e-04  5.9686275328476679e-04  5.9686275328476831e-04  5.9686275328477134e-04  5.9686275328477579e-04  5.9686275328478360e-04  5.9686275328479693e-04  5.9686275328481721e-04  5.9686275328485038e-04  5.9686275328490253e-04  5.9686275328498179e-04  5.9686275328510246e-04  5.9686275328528406e-04  5.9686275328555013e-04  5.9686275328593372e-04  5.9686275328648146e-04  5.9686275328724669e-04  5.9686275328829912e-04  5.9686275328972539e-04  5.9686275329162188e-04  5.9686275329410004e-04  5.9686275329728282e-04  5.9686275330129263e-04  5.9686275330625026e-04  5.9686275331226747e-04  5.9686275331943849e-04  5.9686275332784041e-04  5.9686275333752840e-04  5.9686275334855084e-04  5.9686275336095953e-04  5.9686275337481488e-04  5.9686275339020795e-04  5.9686275340727318e-04  5.9686275342619088e-04  5.9686275344720153e-04  5.9686275347060544e-04  5.9686275349674967e-04  5.9686275352602563e-04  5.9686275355885863e-04  5.9686275359568876e-04  5.9686275363697323e-04  5.9686275368318680e-04  5.9686275373484383e-04  5.9686275379258421e-04  5.9686275385734090e-04  5.9686275393064489e-04  5.9686275401514652e-04  5.9686275411539034e-04  5.9686275423885874e-04  5.9686275439723216e-04  5.9686275460758451e-04  5.9686275489300865e-04  5.9686275528186752e-04  5.9686275580470396e-04  5.9686275648803723e-04  5.9686275734504733e-04  5.9686275836464471e-04  5.9686275950205151e-04  5.9686276067513907e-04  5.9686276177031337e-04  5.9686276265915076e-04  5.9686276322320206e-04  5.9686276338055959e-04  5.9686276310572984e-04  5.9686276243564693e-04  5.9686276145958276e-04  5.9686276029701597e-04  5.9686275907160741e-04  5.9686275788942925e-04  5.9686275682620130e-04  5.9686275592415441e-04  5.9686275519621609e-04  5.9686275463398028e-04  5.9686275421637998e-04  5.9686275391704769e-04  5.9686275370950852e-04  5.9686275357019938e-04  5.9686275347975524e-04  5.9686275342314514e-04  5.9686275338918522e-04  5.9686275336979459e-04  5.9686275335927804e-04  5.9686275335370709e-04  5.9686275335043290e-04  5.9686275334775774e-04  5.9686275334469032e-04  5.9686275334076529e-04  5.9686275333589657e-04  5.9686275333025341e-04  5.9686275332414848e-04  5.9686275331794522e-04  5.9686275331199143e-04  5.9686275330656055e-04  5.9686275330184894e-04  5.9686275329798040e-04  5.9686275329500881e-04  5.9686275329296260e-04  5.9686275329187547e-04  1.1930238061841219e-03  1.1930238061720478e-03  5.9686275328476614e-04  5.9686275328476690e-04  5.9686275328476874e-04  5.9686275328477189e-04  5.9686275328477763e-04  5.9686275328478685e-04  5.9686275328480279e-04  5.9686275328482946e-04  5.9686275328487185e-04  5.9686275328494026e-04  5.9686275328504879e-04  5.9686275328521652e-04  5.9686275328547336e-04  5.9686275328586140e-04  5.9686275328643418e-04  5.9686275328726718e-04  5.9686275328846121e-04  5.9686275329014010e-04  5.9686275329246278e-04  5.9686275329562453e-04  5.9686275329985043e-04  5.9686275330539916e-04  5.9686275331255392e-04  5.9686275332160202e-04  5.9686275333282503e-04  5.9686275334647925e-04  5.9686275336277785e-04  5.9686275338188908e-04  5.9686275340393178e-04  5.9686275342900124e-04  5.9686275345719462e-04  5.9686275348863670e-04  5.9686275352352242e-04  5.9686275356214842e-04  5.9686275360492898e-04  5.9686275365241704e-04  5.9686275370530127e-04  5.9686275376438617e-04  5.9686275383057650e-04  5.9686275390484890e-04  5.9686275398821451e-04  5.9686275408169973e-04  5.9686275418633662e-04  5.9686275430319237e-04  5.9686275443351748e-04  5.9686275457908116e-04  5.9686275474281781e-04  5.9686275492997192e-04  5.9686275514988238e-04  5.9686275541850973e-04  5.9686275576163121e-04  5.9686275621815340e-04  5.9686275684236068e-04  5.9686275770307507e-04  5.9686275887709428e-04  5.9686276043452045e-04  5.9686276241544456e-04  5.9686276480133487e-04  5.9686276748924997e-04  5.9686277028045084e-04  5.9686277289399629e-04  5.9686277500912099e-04  5.9686277632980229e-04  5.9686277665442380e-04  5.9686277592740141e-04  5.9686277425294125e-04  5.9686277186527133e-04  5.9686276906790645e-04  5.9686276616542665e-04  5.9686276340960775e-04  5.9686276097110772e-04  5.9686275893630310e-04  5.9686275732156058e-04  5.9686275609523154e-04  5.9686275519961246e-04  5.9686275456839830e-04  5.9686275413817832e-04  5.9686275385449313e-04  5.9686275367387231e-04  5.9686275356339992e-04  5.9686275349908602e-04  5.9686275346389336e-04  5.9686275344595805e-04  5.9686275343716279e-04  5.9686275343208656e-04  5.9686275342730154e-04  5.9686275342087460e-04  5.9686275341199629e-04  5.9686275340067299e-04  5.9686275338745049e-04  5.9686275337316331e-04  5.9686275335872336e-04  5.9686275334496126e-04  5.9686275333251668e-04  5.9686275332181951e-04  5.9686275331310762e-04  5.9686275330646525e-04  5.9686275330191269e-04  5.9686275329948841e-04  1.1930238061969283e-03  1.1930238061720513e-03  5.9686275328476777e-04  5.9686275328476961e-04  5.9686275328477319e-04  5.9686275328477937e-04  5.9686275328479053e-04  5.9686275328480962e-04  5.9686275328484171e-04  5.9686275328489581e-04  5.9686275328498341e-04  5.9686275328512588e-04  5.9686275328535345e-04  5.9686275328570896e-04  5.9686275328625713e-04  5.9686275328708969e-04  5.9686275328832937e-04  5.9686275329014432e-04  5.9686275329275964e-04  5.9686275329645980e-04  5.9686275330160738e-04  5.9686275330864851e-04  5.9686275331810818e-04  5.9686275333058843e-04  5.9686275334674922e-04  5.9686275336726764e-04  5.9686275339280190e-04  5.9686275342394539e-04  5.9686275346118546e-04  5.9686275350488965e-04  5.9686275355530884e-04  5.9686275361262476e-04  5.9686275367701563e-04  5.9686275374873322e-04  5.9686275382819461e-04  5.9686275391606085e-04  5.9686275401328375e-04  5.9686275412114062e-04  5.9686275424122718e-04  5.9686275437541693e-04  5.9686275452581182e-04  5.9686275469467435e-04  5.9686275488434110e-04  5.9686275509714972e-04  5.9686275533538276e-04  5.9686275560128486e-04  5.9686275589730295e-04  5.9686275622672738e-04  5.9686275659504137e-04  5.9686275701240467e-04  5.9686275749772056e-04  5.9686275808467216e-04  5.9686275882973221e-04  5.9686275982113936e-04  5.9686276118615098e-04  5.9686276309155878e-04  5.9686276573036863e-04  5.9686276928745295e-04  5.9686277388122167e-04  5.9686277948851950e-04  5.9686278587378974e-04  5.9686279255423283e-04  5.9686279883082297e-04  5.9686280389677757e-04  5.9686280700666568e-04  5.9686280766058021e-04  5.9686280573968524e-04  5.9686280153728986e-04  5.9686279567096941e-04  5.9686278891483069e-04  5.9686278202016833e-04  5.9686277558301847e-04  5.9686276998378439e-04  5.9686276539186467e-04  5.9686276181088475e-04  5.9686275913821104e-04  5.9686275721978403e-04  5.9686275589083634e-04  5.9686275500070885e-04  5.9686275442437126e-04  5.9686275406482467e-04  5.9686275385037967e-04  5.9686275372981780e-04  5.9686275366732579e-04  5.9686275363821182e-04  5.9686275362567909e-04  5.9686275361858310e-04  5.9686275360997117e-04  5.9686275359607842e-04  5.9686275357557269e-04  5.9686275354889611e-04  5.9686275351764691e-04  5.9686275348400249e-04  5.9686275345022450e-04  5.9686275341829540e-04  5.9686275338969197e-04  5.9686275336534253e-04  5.9686275334569039e-04  5.9686275333082630e-04  5.9686275332069291e-04  5.9686275331528546e-04  1.1930238062234462e-03  1.1930238061720561e-03  5.9686275328477048e-04  5.9686275328477395e-04  5.9686275328478088e-04  5.9686275328479335e-04  5.9686275328481558e-04  5.9686275328485342e-04  5.9686275328491825e-04  5.9686275328502808e-04  5.9686275328520882e-04  5.9686275328550459e-04  5.9686275328598055e-04  5.9686275328673180e-04  5.9686275328790013e-04  5.9686275328968668e-04  5.9686275329236705e-04  5.9686275329631864e-04  5.9686275330204626e-04  5.9686275331019925e-04  5.9686275332160505e-04  5.9686275333728771e-04  5.9686275335846619e-04  5.9686275338654627e-04  5.9686275342307217e-04  5.9686275346963909e-04  5.9686275352779266e-04  5.9686275359891253e-04  5.9686275368411249e-04  5.9686275378419823e-04  5.9686275389968257e-04  5.9686275403089369e-04  5.9686275417814049e-04  5.9686275434191096e-04  5.9686275452309372e-04  5.9686275472316393e-04  5.9686275494430800e-04  5.9686275518948536e-04  5.9686275546240691e-04  5.9686275576743960e-04  5.9686275610947861e-04  5.9686275649378101e-04  5.9686275692576499e-04  5.9686275741079986e-04  5.9686275795400238e-04  5.9686275856015553e-04  5.9686275923403304e-04  5.9686275998156822e-04  5.9686276081257687e-04  5.9686276174605857e-04  5.9686276281931269e-04  5.9686276410211966e-04  5.9686276571655102e-04  5.9686276786078069e-04  5.9686277083107690e-04  5.9686277502978729e-04  5.9686278094045724e-04  5.9686278904882734e-04  5.9686279969753376e-04  5.9686281288880648e-04  5.9686282808940226e-04  5.9686284412532485e-04  5.9686285925112758e-04  5.9686287142822643e-04  5.9686287876938731e-04  5.9686288002874528e-04  5.9686287496127930e-04  5.9686286439144176e-04  5.9686284995310711e-04  5.9686283362382457e-04  5.9686281725333465e-04  5.9686280224209749e-04  5.9686278942145115e-04  5.9686277909919421e-04  5.9686277119624714e-04  5.9686276540458485e-04  5.9686276132173122e-04  5.9686275854361603e-04  5.9686275671619327e-04  5.9686275555537497e-04  5.9686275484693602e-04  5.9686275443631169e-04  5.9686275421519039e-04  5.9686275410887678e-04  5.9686275406625430e-04  5.9686275405264637e-04  5.9686275404512916e-04  5.9686275402959362e-04  5.9686275399877626e-04  5.9686275395072854e-04  5.9686275388740224e-04  5.9686275381324021e-04  5.9686275373382804e-04  5.9686275365473051e-04  5.9686275358065077e-04  5.9686275351495614e-04  5.9686275345961120e-04  5.9686275341538475e-04  5.9686275338222724e-04  5.9686275335975878e-04  5.9686275334775384e-04  1.1930238062777762e-03  1.1930238061720665e-03  5.9686275328477611e-04  5.9686275328478294e-04  5.9686275328479606e-04  5.9686275328482035e-04  5.9686275328486393e-04  5.9686275328493950e-04  5.9686275328507004e-04  5.9686275328529187e-04  5.9686275328566234e-04  5.9686275328627383e-04  5.9686275328726631e-04  5.9686275328884903e-04  5.9686275329133109e-04  5.9686275329515583e-04  5.9686275330093940e-04  5.9686275330952758e-04  5.9686275332205359e-04  5.9686275333999356e-04  5.9686275336523541e-04  5.9686275340013024e-04  5.9686275344750619e-04  5.9686275351064438e-04  5.9686275359316951e-04  5.9686275369884518e-04  5.9686275383131018e-04  5.9686275399378308e-04  5.9686275418881121e-04  5.9686275441815304e-04  5.9686275468282641e-04  5.9686275498336552e-04  5.9686275532023581e-04  5.9686275569433879e-04  5.9686275610754743e-04  5.9686275656315921e-04  5.9686275706619704e-04  5.9686275762353312e-04  5.9686275824381548e-04  5.9686275893723270e-04  5.9686275971519167e-04  5.9686276058992782e-04  5.9686276157404003e-04  5.9686276267994500e-04  5.9686276391926203e-04  5.9686276530234296e-04  5.9686276683851432e-04  5.9686276853803072e-04  5.9686277041736465e-04  5.9686277251025637e-04  5.9686277488774065e-04  5.9686277769088096e-04  5.9686278117896069e-04  5.9686278579143656e-04  5.9686279221182737e-04  5.9686280140473856e-04  5.9686281457670685e-04  5.9686283299919369e-04  5.9686285764905223e-04  5.9686288868994876e-04  5.9686292493362023e-04  5.9686296352458583e-04  5.9686300009065502e-04  5.9686302945844349e-04  5.9686304682432534e-04  5.9686304906632023e-04  5.9686303570897136e-04  5.9686300907009656e-04  5.9686297348754901e-04  5.9686293401840220e-04  5.9686289520146664e-04  5.9686286029226340e-04  5.9686283105653650e-04  5.9686280797589721e-04  5.9686279064607821e-04  5.9686277818772984e-04  5.9686276956949621e-04  5.9686276381374845e-04  5.9686276009843231e-04  5.9686275778562199e-04  5.9686275640777851e-04  5.9686275563556625e-04  5.9686275524244343e-04  5.9686275507399333e-04  5.9686275502496993e-04  5.9686275502389657e-04  5.9686275502354768e-04  5.9686275499526702e-04  5.9686275492522160e-04  5.9686275481132345e-04  5.9686275466013818e-04  5.9686275448362974e-04  5.9686275429595651e-04  5.9686275411071493e-04  5.9686275393898945e-04  5.9686275378836580e-04  5.9686275366288880e-04  5.9686275356369992e-04  5.9686275349005039e-04  5.9686275344048685e-04  5.9686275341399643e-04  1.1930238063882174e-03  1.1930238061720849e-03  5.9686275328478674e-04  5.9686275328479942e-04  5.9686275328482512e-04  5.9686275328487239e-04  5.9686275328495728e-04  5.9686275328510669e-04  5.9686275328536711e-04  5.9686275328581402e-04  5.9686275328656863e-04  5.9686275328782619e-04  5.9686275328988759e-04  5.9686275329320752e-04  5.9686275329846211e-04  5.9686275330662767e-04  5.9686275331907626e-04  5.9686275333769949e-04  5.9686275336504383e-04  5.9686275340445328e-04  5.9686275346023028e-04  5.9686275353777014e-04  5.96862753643