<?xml version="1.0"?>
<VTKFile type="UnstructuredGrid"  version="0.1"  >
<UnstructuredGrid>
<Piece  NumberOfPoints="5151" NumberOfCells="10000">
<Points>
<DataArray  type="Float64"  NumberOfComponents="3"  format="ascii">0 0 0  0.02 0 0  0.04 0 0  0.06 0 0  0.08 0 0  0.1 0 0  0.12 0 0  0.14 0 0  0.16 0 0  0.18 0 0  0.2 0 0  0.22 0 0  0.24 0 0  0.26 0 0  0.28 0 0  0.3 0 0  0.32 0 0  0.34 0 0  0.36 0 0  0.38 0 0  0.4 0 0  0.42 0 0  0.44 0 0  0.46 0 0  0.48 0 0  0.5 0 0  0.52 0 0  0.54 0 0  0.5600000000000001 0 0  0.58 0 0  0.6 0 0  0.62 0 0  0.64 0 0  0.66 0 0  0.68 0 0  0.7 0 0  0.72 0 0  0.74 0 0  0.76 0 0  0.78 0 0  0.8 0 0  0.82 0 0  0.84 0 0  0.86 0 0  0.88 0 0  0.9 0 0  0.92 0 0  0.9399999999999999 0 0  0.96 0 0  0.98 0 0  1 0 0  1.02 0 0  1.04 0 0  1.06 0 0  1.08 0 0  1.1 0 0  1.12 0 0  1.14 0 0  1.16 0 0  1.18 0 0  1.2 0 0  1.22 0 0  1.24 0 0  1.26 0 0  1.28 0 0  1.3 0 0  1.32 0 0  1.34 0 0  1.36 0 0  1.38 0 0  1.4 0 0  1.42 0 0  1.44 0 0  1.46 0 0  1.48 0 0  1.5 0 0  1.52 0 0  1.54 0 0  1.56 0 0  1.58 0 0  1.6 0 0  1.62 0 0  1.64 0 0  1.66 0 0  1.68 0 0  1.7 0 0  1.72 0 0  1.74 0 0  1.76 0 0  1.78 0 0  1.8 0 0  1.82 0 0  1.84 0 0  1.86 0 0  1.88 0 0  1.9 0 0  1.92 0 0  1.94 0 0  1.96 0 0  1.98 0 0  2 0 0  0 0.02 0  0.02 0.02 0  0.04 0.02 0  0.06 0.02 0  0.08 0.02 0  0.1 0.02 0  0.12 0.02 0  0.14 0.02 0  0.16 0.02 0  0.18 0.02 0  0.2 0.02 0  0.22 0.02 0  0.24 0.02 0  0.26 0.02 0  0.28 0.02 0  0.3 0.02 0  0.32 0.02 0  0.34 0.02 0  0.36 0.02 0  0.38 0.02 0  0.4 0.02 0  0.42 0.02 0  0.44 0.02 0  0.46 0.02 0  0.48 0.02 0  0.5 0.02 0  0.52 0.02 0  0.54 0.02 0  0.5600000000000001 0.02 0  0.58 0.02 0  0.6 0.02 0  0.62 0.02 0  0.64 0.02 0  0.66 0.02 0  0.68 0.02 0  0.7 0.02 0  0.72 0.02 0  0.74 0.02 0  0.76 0.02 0  0.78 0.02 0  0.8 0.02 0  0.82 0.02 0  0.84 0.02 0  0.86 0.02 0  0.88 0.02 0  0.9 0.02 0  0.92 0.02 0  0.9399999999999999 0.02 0  0.96 0.02 0  0.98 0.02 0  1 0.02 0  1.02 0.02 0  1.04 0.02 0  1.06 0.02 0  1.08 0.02 0  1.1 0.02 0  1.12 0.02 0  1.14 0.02 0  1.16 0.02 0  1.18 0.02 0  1.2 0.02 0  1.22 0.02 0  1.24 0.02 0  1.26 0.02 0  1.28 0.02 0  1.3 0.02 0  1.32 0.02 0  1.34 0.02 0  1.36 0.02 0  1.38 0.02 0  1.4 0.02 0  1.42 0.02 0  1.44 0.02 0  1.46 0.02 0  1.48 0.02 0  1.5 0.02 0  1.52 0.02 0  1.54 0.02 0  1.56 0.02 0  1.58 0.02 0  1.6 0.02 0  1.62 0.02 0  1.64 0.02 0  1.66 0.02 0  1.68 0.02 0  1.7 0.02 0  1.72 0.02 0  1.74 0.02 0  1.76 0.02 0  1.78 0.02 0  1.8 0.02 0  1.82 0.02 0  1.84 0.02 0  1.86 0.02 0  1.88 0.02 0  1.9 0.02 0  1.92 0.02 0  1.94 0.02 0  1.96 0.02 0  1.98 0.02 0  2 0.02 0  0 0.04 0  0.02 0.04 0  0.04 0.04 0  0.06 0.04 0  0.08 0.04 0  0.1 0.04 0  0.12 0.04 0  0.14 0.04 0  0.16 0.04 0  0.18 0.04 0  0.2 0.04 0  0.22 0.04 0  0.24 0.04 0  0.26 0.04 0  0.28 0.04 0  0.3 0.04 0  0.32 0.04 0  0.34 0.04 0  0.36 0.04 0  0.38 0.04 0  0.4 0.04 0  0.42 0.04 0  0.44 0.04 0  0.46 0.04 0  0.48 0.04 0  0.5 0.04 0  0.52 0.04 0  0.54 0.04 0  0.5600000000000001 0.04 0  0.58 0.04 0  0.6 0.04 0  0.62 0.04 0  0.64 0.04 0  0.66 0.04 0  0.68 0.04 0  0.7 0.04 0  0.72 0.04 0  0.74 0.04 0  0.76 0.04 0  0.78 0.04 0  0.8 0.04 0  0.82 0.04 0  0.84 0.04 0  0.86 0.04 0  0.88 0.04 0  0.9 0.04 0  0.92 0.04 0  0.9399999999999999 0.04 0  0.96 0.04 0  0.98 0.04 0  1 0.04 0  1.02 0.04 0  1.04 0.04 0  1.06 0.04 0  1.08 0.04 0  1.1 0.04 0  1.12 0.04 0  1.14 0.04 0  1.16 0.04 0  1.18 0.04 0  1.2 0.04 0  1.22 0.04 0  1.24 0.04 0  1.26 0.04 0  1.28 0.04 0  1.3 0.04 0  1.32 0.04 0  1.34 0.04 0  1.36 0.04 0  1.38 0.04 0  1.4 0.04 0  1.42 0.04 0  1.44 0.04 0  1.46 0.04 0  1.48 0.04 0  1.5 0.04 0  1.52 0.04 0  1.54 0.04 0  1.56 0.04 0  1.58 0.04 0  1.6 0.04 0  1.62 0.04 0  1.64 0.04 0  1.66 0.04 0  1.68 0.04 0  1.7 0.04 0  1.72 0.04 0  1.74 0.04 0  1.76 0.04 0  1.78 0.04 0  1.8 0.04 0  1.82 0.04 0  1.84 0.04 0  1.86 0.04 0  1.88 0.04 0  1.9 0.04 0  1.92 0.04 0  1.94 0.04 0  1.96 0.04 0  1.98 0.04 0  2 0.04 0  0 0.06 0  0.02 0.06 0  0.04 0.06 0  0.06 0.06 0  0.08 0.06 0  0.1 0.06 0  0.12 0.06 0  0.14 0.06 0  0.16 0.06 0  0.18 0.06 0  0.2 0.06 0  0.22 0.06 0  0.24 0.06 0  0.26 0.06 0  0.28 0.06 0  0.3 0.06 0  0.32 0.06 0  0.34 0.06 0  0.36 0.06 0  0.38 0.06 0  0.4 0.06 0  0.42 0.06 0  0.44 0.06 0  0.46 0.06 0  0.48 0.06 0  0.5 0.06 0  0.52 0.06 0  0.54 0.06 0  0.5600000000000001 0.06 0  0.58 0.06 0  0.6 0.06 0  0.62 0.06 0  0.64 0.06 0  0.66 0.06 0  0.68 0.06 0  0.7 0.06 0  0.72 0.06 0  0.74 0.06 0  0.76 0.06 0  0.78 0.06 0  0.8 0.06 0  0.82 0.06 0  0.84 0.06 0  0.86 0.06 0  0.88 0.06 0  0.9 0.06 0  0.92 0.06 0  0.9399999999999999 0.06 0  0.96 0.06 0  0.98 0.06 0  1 0.06 0  1.02 0.06 0  1.04 0.06 0  1.06 0.06 0  1.08 0.06 0  1.1 0.06 0  1.12 0.06 0  1.14 0.06 0  1.16 0.06 0  1.18 0.06 0  1.2 0.06 0  1.22 0.06 0  1.24 0.06 0  1.26 0.06 0  1.28 0.06 0  1.3 0.06 0  1.32 0.06 0  1.34 0.06 0  1.36 0.06 0  1.38 0.06 0  1.4 0.06 0  1.42 0.06 0  1.44 0.06 0  1.46 0.06 0  1.48 0.06 0  1.5 0.06 0  1.52 0.06 0  1.54 0.06 0  1.56 0.06 0  1.58 0.06 0  1.6 0.06 0  1.62 0.06 0  1.64 0.06 0  1.66 0.06 0  1.68 0.06 0  1.7 0.06 0  1.72 0.06 0  1.74 0.06 0  1.76 0.06 0  1.78 0.06 0  1.8 0.06 0  1.82 0.06 0  1.84 0.06 0  1.86 0.06 0  1.88 0.06 0  1.9 0.06 0  1.92 0.06 0  1.94 0.06 0  1.96 0.06 0  1.98 0.06 0  2 0.06 0  0 0.08 0  0.02 0.08 0  0.04 0.08 0  0.06 0.08 0  0.08 0.08 0  0.1 0.08 0  0.12 0.08 0  0.14 0.08 0  0.16 0.08 0  0.18 0.08 0  0.2 0.08 0  0.22 0.08 0  0.24 0.08 0  0.26 0.08 0  0.28 0.08 0  0.3 0.08 0  0.32 0.08 0  0.34 0.08 0  0.36 0.08 0  0.38 0.08 0  0.4 0.08 0  0.42 0.08 0  0.44 0.08 0  0.46 0.08 0  0.48 0.08 0  0.5 0.08 0  0.52 0.08 0  0.54 0.08 0  0.5600000000000001 0.08 0  0.58 0.08 0  0.6 0.08 0  0.62 0.08 0  0.64 0.08 0  0.66 0.08 0  0.68 0.08 0  0.7 0.08 0  0.72 0.08 0  0.74 0.08 0  0.76 0.08 0  0.78 0.08 0  0.8 0.08 0  0.82 0.08 0  0.84 0.08 0  0.86 0.08 0  0.88 0.08 0  0.9 0.08 0  0.92 0.08 0  0.9399999999999999 0.08 0  0.96 0.08 0  0.98 0.08 0  1 0.08 0  1.02 0.08 0  1.04 0.08 0  1.06 0.08 0  1.08 0.08 0  1.1 0.08 0  1.12 0.08 0  1.14 0.08 0  1.16 0.08 0  1.18 0.08 0  1.2 0.08 0  1.22 0.08 0  1.24 0.08 0  1.26 0.08 0  1.28 0.08 0  1.3 0.08 0  1.32 0.08 0  1.34 0.08 0  1.36 0.08 0  1.38 0.08 0  1.4 0.08 0  1.42 0.08 0  1.44 0.08 0  1.46 0.08 0  1.48 0.08 0  1.5 0.08 0  1.52 0.08 0  1.54 0.08 0  1.56 0.08 0  1.58 0.08 0  1.6 0.08 0  1.62 0.08 0  1.64 0.08 0  1.66 0.08 0  1.68 0.08 0  1.7 0.08 0  1.72 0.08 0  1.74 0.08 0  1.76 0.08 0  1.78 0.08 0  1.8 0.08 0  1.82 0.08 0  1.84 0.08 0  1.86 0.08 0  1.88 0.08 0  1.9 0.08 0  1.92 0.08 0  1.94 0.08 0  1.96 0.08 0  1.98 0.08 0  2 0.08 0  0 0.1 0  0.02 0.1 0  0.04 0.1 0  0.06 0.1 0  0.08 0.1 0  0.1 0.1 0  0.12 0.1 0  0.14 0.1 0  0.16 0.1 0  0.18 0.1 0  0.2 0.1 0  0.22 0.1 0  0.24 0.1 0  0.26 0.1 0  0.28 0.1 0  0.3 0.1 0  0.32 0.1 0  0.34 0.1 0  0.36 0.1 0  0.38 0.1 0  0.4 0.1 0  0.42 0.1 0  0.44 0.1 0  0.46 0.1 0  0.48 0.1 0  0.5 0.1 0  0.52 0.1 0  0.54 0.1 0  0.5600000000000001 0.1 0  0.58 0.1 0  0.6 0.1 0  0.62 0.1 0  0.64 0.1 0  0.66 0.1 0  0.68 0.1 0  0.7 0.1 0  0.72 0.1 0  0.74 0.1 0  0.76 0.1 0  0.78 0.1 0  0.8 0.1 0  0.82 0.1 0  0.84 0.1 0  0.86 0.1 0  0.88 0.1 0  0.9 0.1 0  0.92 0.1 0  0.9399999999999999 0.1 0  0.96 0.1 0  0.98 0.1 0  1 0.1 0  1.02 0.1 0  1.04 0.1 0  1.06 0.1 0  1.08 0.1 0  1.1 0.1 0  1.12 0.1 0  1.14 0.1 0  1.16 0.1 0  1.18 0.1 0  1.2 0.1 0  1.22 0.1 0  1.24 0.1 0  1.26 0.1 0  1.28 0.1 0  1.3 0.1 0  1.32 0.1 0  1.34 0.1 0  1.36 0.1 0  1.38 0.1 0  1.4 0.1 0  1.42 0.1 0  1.44 0.1 0  1.46 0.1 0  1.48 0.1 0  1.5 0.1 0  1.52 0.1 0  1.54 0.1 0  1.56 0.1 0  1.58 0.1 0  1.6 0.1 0  1.62 0.1 0  1.64 0.1 0  1.66 0.1 0  1.68 0.1 0  1.7 0.1 0  1.72 0.1 0  1.74 0.1 0  1.76 0.1 0  1.78 0.1 0  1.8 0.1 0  1.82 0.1 0  1.84 0.1 0  1.86 0.1 0  1.88 0.1 0  1.9 0.1 0  1.92 0.1 0  1.94 0.1 0  1.96 0.1 0  1.98 0.1 0  2 0.1 0  0 0.12 0  0.02 0.12 0  0.04 0.12 0  0.06 0.12 0  0.08 0.12 0  0.1 0.12 0  0.12 0.12 0  0.14 0.12 0  0.16 0.12 0  0.18 0.12 0  0.2 0.12 0  0.22 0.12 0  0.24 0.12 0  0.26 0.12 0  0.28 0.12 0  0.3 0.12 0  0.32 0.12 0  0.34 0.12 0  0.36 0.12 0  0.38 0.12 0  0.4 0.12 0  0.42 0.12 0  0.44 0.12 0  0.46 0.12 0  0.48 0.12 0  0.5 0.12 0  0.52 0.12 0  0.54 0.12 0  0.5600000000000001 0.12 0  0.58 0.12 0  0.6 0.12 0  0.62 0.12 0  0.64 0.12 0  0.66 0.12 0  0.68 0.12 0  0.7 0.12 0  0.72 0.12 0  0.74 0.12 0  0.76 0.12 0  0.78 0.12 0  0.8 0.12 0  0.82 0.12 0  0.84 0.12 0  0.86 0.12 0  0.88 0.12 0  0.9 0.12 0  0.92 0.12 0  0.9399999999999999 0.12 0  0.96 0.12 0  0.98 0.12 0  1 0.12 0  1.02 0.12 0  1.04 0.12 0  1.06 0.12 0  1.08 0.12 0  1.1 0.12 0  1.12 0.12 0  1.14 0.12 0  1.16 0.12 0  1.18 0.12 0  1.2 0.12 0  1.22 0.12 0  1.24 0.12 0  1.26 0.12 0  1.28 0.12 0  1.3 0.12 0  1.32 0.12 0  1.34 0.12 0  1.36 0.12 0  1.38 0.12 0  1.4 0.12 0  1.42 0.12 0  1.44 0.12 0  1.46 0.12 0  1.48 0.12 0  1.5 0.12 0  1.52 0.12 0  1.54 0.12 0  1.56 0.12 0  1.58 0.12 0  1.6 0.12 0  1.62 0.12 0  1.64 0.12 0  1.66 0.12 0  1.68 0.12 0  1.7 0.12 0  1.72 0.12 0  1.74 0.12 0  1.76 0.12 0  1.78 0.12 0  1.8 0.12 0  1.82 0.12 0  1.84 0.12 0  1.86 0.12 0  1.88 0.12 0  1.9 0.12 0  1.92 0.12 0  1.94 0.12 0  1.96 0.12 0  1.98 0.12 0  2 0.12 0  0 0.14 0  0.02 0.14 0  0.04 0.14 0  0.06 0.14 0  0.08 0.14 0  0.1 0.14 0  0.12 0.14 0  0.14 0.14 0  0.16 0.14 0  0.18 0.14 0  0.2 0.14 0  0.22 0.14 0  0.24 0.14 0  0.26 0.14 0  0.28 0.14 0  0.3 0.14 0  0.32 0.14 0  0.34 0.14 0  0.36 0.14 0  0.38 0.14 0  0.4 0.14 0  0.42 0.14 0  0.44 0.14 0  0.46 0.14 0  0.48 0.14 0  0.5 0.14 0  0.52 0.14 0  0.54 0.14 0  0.5600000000000001 0.14 0  0.58 0.14 0  0.6 0.14 0  0.62 0.14 0  0.64 0.14 0  0.66 0.14 0  0.68 0.14 0  0.7 0.14 0  0.72 0.14 0  0.74 0.14 0  0.76 0.14 0  0.78 0.14 0  0.8 0.14 0  0.82 0.14 0  0.84 0.14 0  0.86 0.14 0  0.88 0.14 0  0.9 0.14 0  0.92 0.14 0  0.9399999999999999 0.14 0  0.96 0.14 0  0.98 0.14 0  1 0.14 0  1.02 0.14 0  1.04 0.14 0  1.06 0.14 0  1.08 0.14 0  1.1 0.14 0  1.12 0.14 0  1.14 0.14 0  1.16 0.14 0  1.18 0.14 0  1.2 0.14 0  1.22 0.14 0  1.24 0.14 0  1.26 0.14 0  1.28 0.14 0  1.3 0.14 0  1.32 0.14 0  1.34 0.14 0  1.36 0.14 0  1.38 0.14 0  1.4 0.14 0  1.42 0.14 0  1.44 0.14 0  1.46 0.14 0  1.48 0.14 0  1
[...]
<PointData  Scalars="sols[i]"> 
<DataArray  type="Float64"  Name="sols[i]"  format="ascii">2.9854310939739337e-01  2.6780342953787778e-01  2.6778967257455877e-01  2.6776788165986470e-01  2.6772661356045180e-01  2.6765247572728168e-01  2.6751422357319327e-01  2.6732157245107230e-01  2.6699075468965461e-01  2.6648897424138535e-01  2.6572837435647501e-01  2.6478527702994187e-01  2.6328487668635492e-01  2.6157051016477845e-01  2.5976599701309955e-01  2.5718789593940744e-01  2.5470758799943294e-01  2.5119487882341751e-01  2.4941846142360358e-01  2.4813538528001944e-01  2.4561414218778754e-01  2.4514064053727710e-01  2.4483759380152123e-01  2.4446292590846541e-01  2.4452632475594743e-01  2.4473568978289093e-01  2.4514724656674763e-01  2.4613315973643521e-01  2.4625921123908373e-01  2.4705329867560144e-01  2.4769816353851681e-01  2.4804556922745122e-01  2.4743815897969954e-01  2.4726168208369620e-01  2.4692268898678330e-01  2.4647046946732468e-01  2.4591156009980639e-01  2.4560521559777893e-01  2.4496782609113288e-01  2.4459392748706865e-01  2.4437540869333979e-01  2.4423041778118773e-01  2.4415014887656750e-01  2.4414849824997839e-01  2.4418724332379332e-01  2.4428437861195143e-01  2.4443741274297559e-01  2.4453899796191705e-01  2.4452291353973823e-01  2.4476590430637676e-01  2.4515268927917266e-01  2.4548532384238711e-01  2.4583225719703194e-01  2.4560299808540542e-01  2.4682084782621816e-01  2.4701695915736718e-01  2.4754786191592743e-01  2.4818680115422037e-01  2.4891311517939163e-01  2.4976880548911856e-01  2.5057429975119921e-01  2.5143055223259797e-01  2.5212681799456288e-01  2.5347303828752443e-01  2.5417511094788842e-01  2.5546557080493898e-01  2.5656178544920522e-01  2.5765469538577884e-01  2.5828205282276934e-01  2.5936853540949789e-01  2.5994082223451032e-01  2.6095104396341962e-01  2.6172296384487431e-01  2.6237545315262700e-01  2.6276804561326039e-01  2.6328892820500149e-01  2.6371309828096873e-01  2.6413762187615536e-01  2.6447757896051927e-01  2.6473211053246604e-01  2.6502161855647127e-01  2.6523958688846583e-01  2.6548125524134814e-01  2.6572755488184263e-01  2.6595436282020884e-01  2.6621798880947128e-01  2.6643561753423256e-01  2.6666358301118775e-01  2.6685875540943549e-01  2.6705648284777594e-01  2.6723064598715424e-01  2.6738219693931581e-01  2.6750749818234221e-01  2.6760609623897896e-01  2.6767944592633386e-01  2.6773190628848070e-01  2.6776632916532556e-01  2.6778746011506216e-01  2.6779969026799277e-01  2.6780548729489378e-01  4.1618135389168848e-01  2.6780537558898410e-01  3.0546259035870155e-01  3.0546345939055874e-01  3.0546424532787364e-01  3.0546680688969258e-01  3.0547084622396298e-01  3.0547743222140311e-01  3.0549078118849193e-01  3.0551131629493095e-01  3.0554757629907336e-01  3.0560477192434166e-01  3.0568441125852558e-01  3.0583102189646821e-01  3.0600578314305199e-01  3.0627061639934811e-01  3.0660708572966022e-01  3.0711876900032214e-01  3.0753905657919350e-01  3.0834813045117793e-01  3.0914654012269338e-01  3.1006625369082802e-01  3.1109266147415682e-01  3.1218458658462594e-01  3.1309505091467305e-01  3.1394028430197390e-01  3.1500472810026842e-01  3.1554349310760738e-01  3.1645299722332054e-01  3.1638692909048427e-01  3.1679627521483783e-01  3.1668463327540258e-01  3.1617779653138223e-01  3.1610196673339497e-01  3.1614739438286060e-01  3.1557654446193228e-01  3.1509671099107406e-01  3.1425244887053633e-01  3.1343911037377326e-01  3.1278151530722637e-01  3.1216142815727543e-01  3.1173084647966126e-01  3.1131855949786263e-01  3.1087522173584342e-01  3.1055879845797529e-01  3.1043703303996245e-01  3.1022233032527430e-01  3.0991531854786769e-01  3.0993029993889309e-01  3.0971653164224910e-01  3.0962843277881918e-01  3.0947309031594034e-01  3.0942594080536123e-01  3.0917835812541444e-01  3.0916338348229094e-01  3.0896315029050631e-01  3.0881746446249886e-01  3.0841316776152722e-01  3.0838659543406388e-01  3.0818140533963417e-01  3.0792518350232101e-01  3.0778390798653954e-01  3.0769055550227020e-01  3.0749275398017950e-01  3.0733874747387235e-01  3.0712410655533806e-01  3.0696929004357043e-01  3.0680810326705515e-01  3.0667994288893502e-01  3.0652871080229210e-01  3.0642707676439201e-01  3.0631055315576533e-01  3.0616986685659781e-01  3.0610579998996706e-01  3.0602475525611261e-01  3.0595415598250941e-01  3.0590935577335354e-01  3.0587033791214868e-01  3.0581988652336001e-01  3.0578409004797147e-01  3.0576283477368404e-01  3.0573402306110398e-01  3.0571116323054592e-01  3.0568611396464052e-01  3.0566513440361326e-01  3.0564084552240844e-01  3.0561842154995028e-01  3.0559628826207502e-01  3.0557603316579945e-01  3.0555634084668842e-01  3.0553822809102338e-01  3.0552138402807966e-01  3.0550688224469508e-01  3.0549515496641372e-01  3.0548540249402173e-01  3.0547778055923047e-01  3.0547228754593420e-01  3.0546842246968786e-01  3.0546589365387733e-01  3.0546436262785476e-01  3.0546356511500822e-01  2.6780520797118240e-01  2.6779819011080025e-01  3.0546303806211927e-01  3.0546314348673154e-01  3.0546429501279365e-01  3.0546512847682500e-01  3.0546706979035626e-01  3.0547212770377374e-01  3.0548180518302925e-01  3.0549816540161062e-01  3.0552508562957958e-01  3.0556472339458324e-01  3.0563175114820751e-01  3.0572945639792581e-01  3.0584820454232081e-01  3.0604987719035953e-01  3.0629428289548166e-01  3.0655167428999214e-01  3.0697774328016358e-01  3.0749312636948156e-01  3.0809837642244825e-01  3.0872994384147850e-01  3.0943352432707322e-01  3.0993061316604670e-01  3.1072595733495972e-01  3.1088003299365013e-01  3.1140659796443160e-01  3.1217645827746687e-01  3.1278901262228387e-01  3.1299278460385643e-01  3.1289861812789332e-01  3.1276437913408350e-01  3.1271197677716656e-01  3.1241997213480949e-01  3.1239202840286012e-01  3.1163353250004439e-01  3.1118987813987609e-01  3.1072734827247883e-01  3.1023182661062582e-01  3.0976353661543771e-01  3.0940864905581378e-01  3.0906305562985259e-01  3.0880026926894777e-01  3.0862821345545005e-01  3.0838589756201651e-01  3.0822556674549262e-01  3.0813202989484934e-01  3.0804410488391637e-01  3.0819015316616027e-01  3.0791677177955684e-01  3.0788113596439420e-01  3.0789379623575563e-01  3.0786881659269871e-01  3.0762378279318608e-01  3.0753010633626310e-01  3.0758382307567494e-01  3.0750431812254952e-01  3.0734824474873024e-01  3.0733087928398028e-01  3.0717959211439388e-01  3.0712180352545654e-01  3.0695832889323166e-01  3.0691010767811233e-01  3.0683266220236155e-01  3.0664133557625090e-01  3.0659916616938582e-01  3.0648201033321276e-01  3.0637928358834460e-01  3.0628035239856521e-01  3.0619765964895523e-01  3.0608124277078641e-01  3.0602474765290572e-01  3.0594810186615073e-01  3.0589831839579612e-01  3.0585031731698015e-01  3.0581100109479253e-01  3.0577254186253955e-01  3.0574094632926324e-01  3.0571529410403986e-01  3.0569493443900719e-01  3.0567406436946754e-01  3.0566054299389556e-01  3.0563566971729716e-01  3.0561775890025322e-01  3.0560236301550386e-01  3.0558655713041449e-01  3.0557150941413164e-01  3.0555725650891719e-01  3.0554434564414207e-01  3.0553140820230756e-01  3.0551905647212868e-01  3.0550813056468451e-01  3.0549832032917335e-01  3.0548984362935483e-01  3.0548299864268208e-01  3.0547711834826169e-01  3.0547261504698714e-01  3.0546932944566241e-01  3.0546698580476522e-01  3.0546543139359039e-01  3.0546453646757776e-01  2.6779789098510842e-01  2.6778241642740475e-01  3.0546376403073133e-01  3.0546249422575272e-01  3.0546276529933830e-01  3.0546165794893826e-01  3.0546240771658045e-01  3.0546445802846167e-01  3.0546999876460385e-01  3.0548218850413200e-01  3.0550568135405110e-01  3.0553409709712903e-01  3.0558700019859225e-01  3.0567175155798415e-01  3.0580331609494293e-01  3.0595106228378999e-01  3.0610555486494939e-01  3.0632598637936292e-01  3.0662190687979707e-01  3.0686397123971720e-01  3.0730542557703100e-01  3.0771421301169016e-01  3.0802214488018581e-01  3.0832294125511428e-01  3.0898977420809726e-01  3.0900427359204069e-01  3.0916482890603342e-01  3.0945881971839195e-01  3.0953452161036377e-01  3.0959793652656903e-01  3.0964403579306921e-01  3.0938521346461106e-01  3.0941344860571129e-01  3.0934076543294570e-01  3.0914563384682875e-01  3.0887083403071974e-01  3.0847555996779308e-01  3.0815446593920787e-01  3.0781869724613997e-01  3.0759615789927230e-01  3.0732769868383270e-01  3.0716563204636960e-01  3.0702359466980822e-01  3.0693204450629086e-01  3.0684538948338647e-01  3.0681645288052511e-01  3.0671413444607076e-01  3.0669575917031267e-01  3.0669159347401809e-01  3.0672558895328089e-01  3.0676056452134964e-01  3.0673557854128491e-01  3.0671873998023896e-01  3.0670622854443647e-01  3.0670989825966088e-01  3.0666626636898131e-01  3.0662905351783498e-01  3.0654318885811527e-01  3.0662533433441741e-01  3.0648628376277609e-01  3.0644285338600652e-01  3.0635890603786597e-01  3.0632726307135272e-01  3.0623177759225823e-01  3.0619525429289185e-01  3.0614083218021171e-01  3.0612285656851668e-01  3.0602759749580516e-01  3.0598531274375146e-01  3.0591961924135724e-01  3.0587739791305585e-01  3.0582267390107026e-01  3.0580878293190505e-01  3.0575997867123594e-01  3.0572458049466955e-01  3.0569119272364331e-01  3.0567293584695726e-01  3.0565244968726712e-01  3.0563278021009288e-01  3.0561928843516045e-01  3.0560560261725683e-01  3.0559483780724167e-01  3.0558104985347045e-01  3.0556860014012860e-01  3.0555892841794896e-01  3.0554916207050720e-01  3.0553849118526555e-01  3.0552983328516348e-01  3.0552112654236591e-01  3.0551333483807092e-01  3.0550540893512301e-01  3.0549824970437994e-01  3.0549168713691133e-01  3.0548618958362328e-01  3.0548103308951402e-01  3.0547679495039037e-01  3.0547334253687725e-01  3.0547060203535420e-01  3.0546868932263299e-01  3.0546736970211819e-01  3.0546643516094785e-01  2.6778235919767779e-01  2.6775948102745617e-01  3.0546377787944468e-01  3.0546291752646426e-01  3.0546039722948015e-01  3.0545814616438244e-01  3.0545651272427404e-01  3.0545745235359456e-01  3.0546035448765757e-01  3.0547088930512684e-01  3.0549219761156476e-01  3.0551598550700054e-01  3.0556492356709219e-01  3.0562592440912401e-01  3.0578781178937287e-01  3.0592021457483887e-01  3.0606877535961963e-01  3.0622930415254240e-01  3.0652199167219979e-01  3.0679406772219026e-01  3.0707112110401968e-01  3.0716553574432182e-01  3.0745096544279521e-01  3.0766510625721660e-01  3.0783138249314890e-01  3.0783876908555829e-01  3.0776960286790422e-01  3.0769249035852564e-01  3.0764486858898960e-01  3.0758731595780237e-01  3.0754074536648329e-01  3.0751825646778935e-01  3.0757964253492770e-01  3.0749296655046232e-01  3.0731871978437419e-01  3.0719149524898437e-01  3.0699652809931360e-01  3.0675830272698701e-01  3.0654141874438573e-01  3.0633965766171806e-01  3.0620933860013327e-01  3.0612382570785229e-01  3.0606744083931287e-01  3.0605277872432185e-01  3.0603771134723678e-01  3.0605403611298898e-01  3.0605138467050663e-01  3.0605436121327528e-01  3.0613737808388453e-01  3.0612202597389360e-01  3.0612617421743138e-01  3.0618701488083305e-01  3.0618283058741530e-01  3.0616495220768014e-01  3.0619123588771735e-01  3.0618710979162495e-01  3.0616127238950602e-01  3.0614343085933887e-01  3.0609892081811269e-01  3.0609959527447322e-01  3.0609772070479424e-01  3.0607185654622610e-01  3.0600857072169424e-01  3.0598860907455960e-01  3.0594609295151315e-01  3.0591652312197143e-01  3.0588864990508224e-01  3.0585377116466145e-01  3.0582009473319205e-01  3.0579773702179097e-01  3.0575950947814662e-01  3.0574153415768113e-01  3.0570943681820978e-01  3.0568019927724155e-01  3.0566245143752419e-01  3.0563971721356392e-01  3.0561785493590660e-01  3.0560594382300393e-01  3.0559301673859651e-01  3.0558228834030138e-01  3.0557234073024481e-01  3.0556059589904322e-01  3.0555247581418465e-01  3.0554360439845524e-01  3.0553662416479671e-01  3.0552967119042201e-01  3.0552258965120055e-01  3.0551634244128961e-01  3.0551059729160618e-01  3.0550432426848911e-01  3.0549920971019856e-01  3.0549413142196258e-01  3.0548950021656751e-01  3.0548490634811981e-01  3.0548108540481161e-01  3.0547772326037625e-01  3.0547481458992159e-01  3.0547270183867237e-01  3.0547137097529220e-01  3.0547051690656835e-01  3.0546978033646960e-01  2.6775438172599531e-01  2.6772834344439195e-01  3.0546352997079412e-01  3.0546168323078682e-01  3.0545770134416372e-01  3.0545397459985557e-01  3.0545116003580980e-01  3.0544960227481949e-01  3.0545134919137296e-01  3.0546191539043127e-01  3.0547929204200908e-01  3.0550942411712534e-01  3.0556770521971854e-01  3.0563543593905035e-01  3.0579347124102951e-01  3.0593956798301186e-01  3.0609407465653837e-01  3.0624843042897293e-01  3.0652623149411978e-01  3.0675920634742526e-01  3.0704086400454700e-01  3.0721004984740374e-01  3.0736682002322679e-01  3.0740413114723775e-01  3.0736904943665222e-01  3.0726447724207168e-01  3.0714645875112806e-01  3.0694910851475354e-01  3.0661965700819133e-01  3.0651998849533252e-01  3.0645099194714609e-01  3.0647064083563191e-01  3.0647240540666237e-01  3.0646932481873268e-01  3.0641089686648204e-01  3.0627911726996365e-01  3.0610060863148120e-01  3.0593002337095698e-01  3.0577730313151535e-01  3.0567282875585033e-01  3.0561457426090283e-01  3.0559073527564384e-01  3.0560570009598959e-01  3.0564856973735804e-01  3.0568238058055974e-01  3.0572806539561787e-01  3.0577493583257964e-01  3.0583283720906568e-01  3.0587649503739456e-01  3.0588292912048359e-01  3.0591965642023861e-01  3.0594222984007369e-01  3.0595020258356270e-01  3.0597106112960770e-01  3.0598582181824152e-01  3.0600107916889951e-01  3.0597336587954432e-01  3.0595668520197322e-01  3.0594788481135743e-01  3.0592924218926804e-01  3.0592218368638352e-01  3.0591143785391872e-01  3.0588508600093534e-01  3.0586201167018845e-01  3.0586031114305490e-01  3.0584207030197996e-01  3.0581526398941977e-01  3.0578928629961571e-01  3.0577170598648173e-01  3.0574654068433177e-01  3.0571651298734831e-01  3.0569756278506482e-01  3.0567734592228279e-01  3.0565095202115627e-01  3.0563173569382995e-01  3.0561441331998218e-01  3.0559873305797330e-01  3.0558727962719934e-01  3.0557501018997707e-01  3.0556778339880075e-01  3.0555801306743069e-01  3.0554849774911297e-01  3.0554147771874124e-01  3.0553538124147367e-01  3.0552839447632335e-01  3.0552396486118577e-01  3.0551776431369321e-01  3.0551261733002477e-01  3.0550818877790842e-01  3.0550302946091096e-01  3.0549842218580703e-01  3.0549425638300565e-01  3.0549000473358473e-01  3.0548627221975888e-01  3.0548287949864694e-01  3.0547980817366632e-01  3.0547753791663013e-01  3.0547599280876447e-01  3.0547522408879407e-01  3.0547522202498967e-01  3.0547516260530611e-01  2.6770618160015880e-01  2.6769953580356076e-01  3.0546605237269719e-01  3.0546040756554182e-01  3.0545559990977372e-01  3.0545039583507400e-01  3.0544592318919717e-01  3.0544524039379017e-01  3.0544777405173035e-01  3.0546115655236949e-01  3.0547819172816232e-01  3.0551487701778246e-01  3.0556294437296749e-01  3.0565024457480550e-01  3.0578455450881081e-01  3.0598525578238434e-01  3.0615622694226241e-01  3.0635561549198526e-01  3.0662003108449376e-01  3.0697627733465477e-01  3.0716036808306624e-01  3.0736932683036805e-01  3.0745988015323439e-01  3.0749828858796896e-01  3.0742069524752857e-01  3.0719044901926551e-01  3.0679548827736619e-01  3.0640910073478278e-01  3.0598679015442520e-01  3.0572041588474258e-01  3.0559185111816911e-01  3.0562808589507218e-01  3.0570607763847307e-01  3.0579896337484769e-01  3.0579330045866238e-01  3.0568896429043646e-01  3.0553263881691456e-01  3.0542155172486157e-01  3.0532279261483297e-01  3.0528767927192113e-01  3.0530247399054056e-01  3.0534058599848229e-01  3.0540912013022853e-01  3.0548040655373565e-01  3.0556736587691541e-01  3.0565158858660879e-01  3.0570773026471121e-01  3.0576777157254131e-01  3.0581434940989433e-01  3.0585704672906638e-01  3.0588837002084740e-01  3.0590185570496542e-01  3.0591897486776365e-01  3.0593907536398413e-01  3.0593500228213838e-01  3.0593687120488988e-01  3.0593391053115476e-01  3.0592900513945698e-01  3.0591229708798490e-01  3.0590413592087257e-01  3.0590378683123404e-01  3.0587202878110442e-01  3.0585235546795475e-01  3.0583533231517707e-01  3.0584319902295182e-01  3.0581641729407016e-01  3.0579663357791725e-01  3.0578365367165045e-01  3.0574943162641660e-01  3.0573913683975279e-01  3.0571544441519605e-01  3.0569321039507358e-01  3.0567170043903630e-01  3.0564961018586051e-01  3.0562896967321851e-01  3.0561141095111422e-01  3.0559571570797051e-01  3.0558539562948039e-01  3.0557615599490334e-01  3.0556583773318230e-01  3.0555632709025571e-01  3.0554937130360488e-01  3.0554234688048498e-01  3.0553705760218458e-01  3.0553091776003782e-01  3.0552478864963106e-01  3.0551985498914103e-01  3.0551505319967703e-01  3.0551090424275529e-01  3.0550563616751003e-01  3.0550170728054882e-01  3.0549735180767590e-01  3.0549318439989021e-01  3.0548961811018821e-01  3.0548648729609668e-01  3.0548334866381216e-01  3.0548133854817106e-01  3.0548039331160326e-01  3.0548062087707101e-01  3.0548226596609568e-01  3.0548362341788193e-01  2.6762983448404049e-01  2.6765793755300626e-01  3.0546555801293346e-01  3.0545752710975033e-01  3.0545338828086405e-01  3.0544590638291619e-01  3.0544145992600852e-01  3.0543850896777203e-01  3.0544418419414066e-01  3.0545718569062635e-01  3.0548539612006720e-01  3.0552666034616832e-01  3.0557066578471648e-01  3.0572622440286579e-01  3.0584696337673961e-01  3.0604793360433435e-01  3.0629896239355692e-01  3.0651738286545216e-01  3.0680829188778169e-01  3.0715491533041744e-01  3.0746633723972200e-01  3.0768288936859339e-01  3.0782325363072560e-01  3.0785137400809254e-01  3.0767112692918108e-01  3.0729617331555104e-01  3.0669158035529365e-01  3.0600979427582936e-01  3.0538813314541335e-01  3.0492737806543724e-01  3.0477610915713904e-01  3.0482816037782773e-01  3.0508142158553886e-01  3.0520568399724579e-01  3.0531776590902848e-01  3.0525727241643186e-01  3.0515831026715212e-01  3.0508144836991125e-01  3.0502902167755103e-01  3.0506236953995758e-01  3.0515901139352092e-01  3.0526786734286659e-01  3.0538019334518385e-01  3.0549198025568958e-01  3.0559799583718456e-01  3.0568529255010762e-01  3.0577284369737212e-01  3.0585841784138967e-01  3.0589876305911595e-01  3.0592251060393616e-01  3.0595271528403023e-01  3.0598509282030173e-01  3.0597850519975778e-01  3.0599068904407839e-01  3.0597589402699910e-01  3.0596237534191706e-01  3.0597745239639168e-01  3.0596271045376561e-01  3.0595732707882728e-01  3.0593127208278192e-01  3.0592039601725945e-01  3.0591569890595449e-01  3.0590273980224825e-01  3.0588881264443046e-01  3.0585936762003796e-01  3.0585054340841028e-01  3.0582946804592415e-01  3.0580181737789203e-01  3.0577958381249093e-01  3.0576633267052022e-01  3.0573645532375560e-01  3.0570962158449122e-01  3.0568707726446998e-01  3.0566429569380904e-01  3.0564384202740874e-01  3.0562742754531996e-01  3.0561096326145093e-01  3.0559837316226562e-01  3.0558600537580072e-01  3.0557736912251615e-01  3.0556705366158149e-01  3.0555762807929870e-01  3.0555207810302210e-01  3.0554495408006793e-01  3.0553792207936725e-01  3.0553227013290507e-01  3.0552626473168487e-01  3.0552142009065919e-01  3.0551567489845255e-01  3.0551144609115827e-01  3.0550738915704839e-01  3.0550249839710925e-01  3.0549814436880768e-01  3.0549446046709328e-01  3.0549066520393797e-01  3.0548786694202945e-01  3.0548614600977342e-01  3.0548601689843169e-01  3.0548795144414009e-01  3.0549169832213552e-01  3.0549602575005752e-01  2.6751076181228417e-01  2.6757876520772039e-01  3.0546686648118493e-01  3.0545741195303111e-01  3.0544967201986650e-01  3.0544183439696176e-01  3.0543674275026278e-01  3.0543500974430765e-01  3.0544177355719165e-01  3.0545203177576324e-01  3.0548608149760564e-01  3.0551628670091435e-01  3.0559645574325001e-01  3.0572492011928343e-01  3.0588185303024540e-01  3.0609761791277895e-01  3.0634116447378523e-01  3.0667163727304420e-01  3.0707090845890517e-01  3.0740729024202101e-01  3.0769869401866934e-01  3.0807854355982683e-01  3.08344150178