<?xml version="1.0"?>
<VTKFile type="UnstructuredGrid"  version="0.1"  >
<UnstructuredGrid>
<Piece  NumberOfPoints="5151" NumberOfCells="10000">
<Points>
<DataArray  type="Float64"  NumberOfComponents="3"  format="ascii">0 0 0  0.02 0 0  0.04 0 0  0.06 0 0  0.08 0 0  0.1 0 0  0.12 0 0  0.14 0 0  0.16 0 0  0.18 0 0  0.2 0 0  0.22 0 0  0.24 0 0  0.26 0 0  0.28 0 0  0.3 0 0  0.32 0 0  0.34 0 0  0.36 0 0  0.38 0 0  0.4 0 0  0.42 0 0  0.44 0 0  0.46 0 0  0.48 0 0  0.5 0 0  0.52 0 0  0.54 0 0  0.5600000000000001 0 0  0.58 0 0  0.6 0 0  0.62 0 0  0.64 0 0  0.66 0 0  0.68 0 0  0.7 0 0  0.72 0 0  0.74 0 0  0.76 0 0  0.78 0 0  0.8 0 0  0.82 0 0  0.84 0 0  0.86 0 0  0.88 0 0  0.9 0 0  0.92 0 0  0.9399999999999999 0 0  0.96 0 0  0.98 0 0  1 0 0  1.02 0 0  1.04 0 0  1.06 0 0  1.08 0 0  1.1 0 0  1.12 0 0  1.14 0 0  1.16 0 0  1.18 0 0  1.2 0 0  1.22 0 0  1.24 0 0  1.26 0 0  1.28 0 0  1.3 0 0  1.32 0 0  1.34 0 0  1.36 0 0  1.38 0 0  1.4 0 0  1.42 0 0  1.44 0 0  1.46 0 0  1.48 0 0  1.5 0 0  1.52 0 0  1.54 0 0  1.56 0 0  1.58 0 0  1.6 0 0  1.62 0 0  1.64 0 0  1.66 0 0  1.68 0 0  1.7 0 0  1.72 0 0  1.74 0 0  1.76 0 0  1.78 0 0  1.8 0 0  1.82 0 0  1.84 0 0  1.86 0 0  1.88 0 0  1.9 0 0  1.92 0 0  1.94 0 0  1.96 0 0  1.98 0 0  2 0 0  0 0.02 0  0.02 0.02 0  0.04 0.02 0  0.06 0.02 0  0.08 0.02 0  0.1 0.02 0  0.12 0.02 0  0.14 0.02 0  0.16 0.02 0  0.18 0.02 0  0.2 0.02 0  0.22 0.02 0  0.24 0.02 0  0.26 0.02 0  0.28 0.02 0  0.3 0.02 0  0.32 0.02 0  0.34 0.02 0  0.36 0.02 0  0.38 0.02 0  0.4 0.02 0  0.42 0.02 0  0.44 0.02 0  0.46 0.02 0  0.48 0.02 0  0.5 0.02 0  0.52 0.02 0  0.54 0.02 0  0.5600000000000001 0.02 0  0.58 0.02 0  0.6 0.02 0  0.62 0.02 0  0.64 0.02 0  0.66 0.02 0  0.68 0.02 0  0.7 0.02 0  0.72 0.02 0  0.74 0.02 0  0.76 0.02 0  0.78 0.02 0  0.8 0.02 0  0.82 0.02 0  0.84 0.02 0  0.86 0.02 0  0.88 0.02 0  0.9 0.02 0  0.92 0.02 0  0.9399999999999999 0.02 0  0.96 0.02 0  0.98 0.02 0  1 0.02 0  1.02 0.02 0  1.04 0.02 0  1.06 0.02 0  1.08 0.02 0  1.1 0.02 0  1.12 0.02 0  1.14 0.02 0  1.16 0.02 0  1.18 0.02 0  1.2 0.02 0  1.22 0.02 0  1.24 0.02 0  1.26 0.02 0  1.28 0.02 0  1.3 0.02 0  1.32 0.02 0  1.34 0.02 0  1.36 0.02 0  1.38 0.02 0  1.4 0.02 0  1.42 0.02 0  1.44 0.02 0  1.46 0.02 0  1.48 0.02 0  1.5 0.02 0  1.52 0.02 0  1.54 0.02 0  1.56 0.02 0  1.58 0.02 0  1.6 0.02 0  1.62 0.02 0  1.64 0.02 0  1.66 0.02 0  1.68 0.02 0  1.7 0.02 0  1.72 0.02 0  1.74 0.02 0  1.76 0.02 0  1.78 0.02 0  1.8 0.02 0  1.82 0.02 0  1.84 0.02 0  1.86 0.02 0  1.88 0.02 0  1.9 0.02 0  1.92 0.02 0  1.94 0.02 0  1.96 0.02 0  1.98 0.02 0  2 0.02 0  0 0.04 0  0.02 0.04 0  0.04 0.04 0  0.06 0.04 0  0.08 0.04 0  0.1 0.04 0  0.12 0.04 0  0.14 0.04 0  0.16 0.04 0  0.18 0.04 0  0.2 0.04 0  0.22 0.04 0  0.24 0.04 0  0.26 0.04 0  0.28 0.04 0  0.3 0.04 0  0.32 0.04 0  0.34 0.04 0  0.36 0.04 0  0.38 0.04 0  0.4 0.04 0  0.42 0.04 0  0.44 0.04 0  0.46 0.04 0  0.48 0.04 0  0.5 0.04 0  0.52 0.04 0  0.54 0.04 0  0.5600000000000001 0.04 0  0.58 0.04 0  0.6 0.04 0  0.62 0.04 0  0.64 0.04 0  0.66 0.04 0  0.68 0.04 0  0.7 0.04 0  0.72 0.04 0  0.74 0.04 0  0.76 0.04 0  0.78 0.04 0  0.8 0.04 0  0.82 0.04 0  0.84 0.04 0  0.86 0.04 0  0.88 0.04 0  0.9 0.04 0  0.92 0.04 0  0.9399999999999999 0.04 0  0.96 0.04 0  0.98 0.04 0  1 0.04 0  1.02 0.04 0  1.04 0.04 0  1.06 0.04 0  1.08 0.04 0  1.1 0.04 0  1.12 0.04 0  1.14 0.04 0  1.16 0.04 0  1.18 0.04 0  1.2 0.04 0  1.22 0.04 0  1.24 0.04 0  1.26 0.04 0  1.28 0.04 0  1.3 0.04 0  1.32 0.04 0  1.34 0.04 0  1.36 0.04 0  1.38 0.04 0  1.4 0.04 0  1.42 0.04 0  1.44 0.04 0  1.46 0.04 0  1.48 0.04 0  1.5 0.04 0  1.52 0.04 0  1.54 0.04 0  1.56 0.04 0  1.58 0.04 0  1.6 0.04 0  1.62 0.04 0  1.64 0.04 0  1.66 0.04 0  1.68 0.04 0  1.7 0.04 0  1.72 0.04 0  1.74 0.04 0  1.76 0.04 0  1.78 0.04 0  1.8 0.04 0  1.82 0.04 0  1.84 0.04 0  1.86 0.04 0  1.88 0.04 0  1.9 0.04 0  1.92 0.04 0  1.94 0.04 0  1.96 0.04 0  1.98 0.04 0  2 0.04 0  0 0.06 0  0.02 0.06 0  0.04 0.06 0  0.06 0.06 0  0.08 0.06 0  0.1 0.06 0  0.12 0.06 0  0.14 0.06 0  0.16 0.06 0  0.18 0.06 0  0.2 0.06 0  0.22 0.06 0  0.24 0.06 0  0.26 0.06 0  0.28 0.06 0  0.3 0.06 0  0.32 0.06 0  0.34 0.06 0  0.36 0.06 0  0.38 0.06 0  0.4 0.06 0  0.42 0.06 0  0.44 0.06 0  0.46 0.06 0  0.48 0.06 0  0.5 0.06 0  0.52 0.06 0  0.54 0.06 0  0.5600000000000001 0.06 0  0.58 0.06 0  0.6 0.06 0  0.62 0.06 0  0.64 0.06 0  0.66 0.06 0  0.68 0.06 0  0.7 0.06 0  0.72 0.06 0  0.74 0.06 0  0.76 0.06 0  0.78 0.06 0  0.8 0.06 0  0.82 0.06 0  0.84 0.06 0  0.86 0.06 0  0.88 0.06 0  0.9 0.06 0  0.92 0.06 0  0.9399999999999999 0.06 0  0.96 0.06 0  0.98 0.06 0  1 0.06 0  1.02 0.06 0  1.04 0.06 0  1.06 0.06 0  1.08 0.06 0  1.1 0.06 0  1.12 0.06 0  1.14 0.06 0  1.16 0.06 0  1.18 0.06 0  1.2 0.06 0  1.22 0.06 0  1.24 0.06 0  1.26 0.06 0  1.28 0.06 0  1.3 0.06 0  1.32 0.06 0  1.34 0.06 0  1.36 0.06 0  1.38 0.06 0  1.4 0.06 0  1.42 0.06 0  1.44 0.06 0  1.46 0.06 0  1.48 0.06 0  1.5 0.06 0  1.52 0.06 0  1.54 0.06 0  1.56 0.06 0  1.58 0.06 0  1.6 0.06 0  1.62 0.06 0  1.64 0.06 0  1.66 0.06 0  1.68 0.06 0  1.7 0.06 0  1.72 0.06 0  1.74 0.06 0  1.76 0.06 0  1.78 0.06 0  1.8 0.06 0  1.82 0.06 0  1.84 0.06 0  1.86 0.06 0  1.88 0.06 0  1.9 0.06 0  1.92 0.06 0  1.94 0.06 0  1.96 0.06 0  1.98 0.06 0  2 0.06 0  0 0.08 0  0.02 0.08 0  0.04 0.08 0  0.06 0.08 0  0.08 0.08 0  0.1 0.08 0  0.12 0.08 0  0.14 0.08 0  0.16 0.08 0  0.18 0.08 0  0.2 0.08 0  0.22 0.08 0  0.24 0.08 0  0.26 0.08 0  0.28 0.08 0  0.3 0.08 0  0.32 0.08 0  0.34 0.08 0  0.36 0.08 0  0.38 0.08 0  0.4 0.08 0  0.42 0.08 0  0.44 0.08 0  0.46 0.08 0  0.48 0.08 0  0.5 0.08 0  0.52 0.08 0  0.54 0.08 0  0.5600000000000001 0.08 0  0.58 0.08 0  0.6 0.08 0  0.62 0.08 0  0.64 0.08 0  0.66 0.08 0  0.68 0.08 0  0.7 0.08 0  0.72 0.08 0  0.74 0.08 0  0.76 0.08 0  0.78 0.08 0  0.8 0.08 0  0.82 0.08 0  0.84 0.08 0  0.86 0.08 0  0.88 0.08 0  0.9 0.08 0  0.92 0.08 0  0.9399999999999999 0.08 0  0.96 0.08 0  0.98 0.08 0  1 0.08 0  1.02 0.08 0  1.04 0.08 0  1.06 0.08 0  1.08 0.08 0  1.1 0.08 0  1.12 0.08 0  1.14 0.08 0  1.16 0.08 0  1.18 0.08 0  1.2 0.08 0  1.22 0.08 0  1.24 0.08 0  1.26 0.08 0  1.28 0.08 0  1.3 0.08 0  1.32 0.08 0  1.34 0.08 0  1.36 0.08 0  1.38 0.08 0  1.4 0.08 0  1.42 0.08 0  1.44 0.08 0  1.46 0.08 0  1.48 0.08 0  1.5 0.08 0  1.52 0.08 0  1.54 0.08 0  1.56 0.08 0  1.58 0.08 0  1.6 0.08 0  1.62 0.08 0  1.64 0.08 0  1.66 0.08 0  1.68 0.08 0  1.7 0.08 0  1.72 0.08 0  1.74 0.08 0  1.76 0.08 0  1.78 0.08 0  1.8 0.08 0  1.82 0.08 0  1.84 0.08 0  1.86 0.08 0  1.88 0.08 0  1.9 0.08 0  1.92 0.08 0  1.94 0.08 0  1.96 0.08 0  1.98 0.08 0  2 0.08 0  0 0.1 0  0.02 0.1 0  0.04 0.1 0  0.06 0.1 0  0.08 0.1 0  0.1 0.1 0  0.12 0.1 0  0.14 0.1 0  0.16 0.1 0  0.18 0.1 0  0.2 0.1 0  0.22 0.1 0  0.24 0.1 0  0.26 0.1 0  0.28 0.1 0  0.3 0.1 0  0.32 0.1 0  0.34 0.1 0  0.36 0.1 0  0.38 0.1 0  0.4 0.1 0  0.42 0.1 0  0.44 0.1 0  0.46 0.1 0  0.48 0.1 0  0.5 0.1 0  0.52 0.1 0  0.54 0.1 0  0.5600000000000001 0.1 0  0.58 0.1 0  0.6 0.1 0  0.62 0.1 0  0.64 0.1 0  0.66 0.1 0  0.68 0.1 0  0.7 0.1 0  0.72 0.1 0  0.74 0.1 0  0.76 0.1 0  0.78 0.1 0  0.8 0.1 0  0.82 0.1 0  0.84 0.1 0  0.86 0.1 0  0.88 0.1 0  0.9 0.1 0  0.92 0.1 0  0.9399999999999999 0.1 0  0.96 0.1 0  0.98 0.1 0  1 0.1 0  1.02 0.1 0  1.04 0.1 0  1.06 0.1 0  1.08 0.1 0  1.1 0.1 0  1.12 0.1 0  1.14 0.1 0  1.16 0.1 0  1.18 0.1 0  1.2 0.1 0  1.22 0.1 0  1.24 0.1 0  1.26 0.1 0  1.28 0.1 0  1.3 0.1 0  1.32 0.1 0  1.34 0.1 0  1.36 0.1 0  1.38 0.1 0  1.4 0.1 0  1.42 0.1 0  1.44 0.1 0  1.46 0.1 0  1.48 0.1 0  1.5 0.1 0  1.52 0.1 0  1.54 0.1 0  1.56 0.1 0  1.58 0.1 0  1.6 0.1 0  1.62 0.1 0  1.64 0.1 0  1.66 0.1 0  1.68 0.1 0  1.7 0.1 0  1.72 0.1 0  1.74 0.1 0  1.76 0.1 0  1.78 0.1 0  1.8 0.1 0  1.82 0.1 0  1.84 0.1 0  1.86 0.1 0  1.88 0.1 0  1.9 0.1 0  1.92 0.1 0  1.94 0.1 0  1.96 0.1 0  1.98 0.1 0  2 0.1 0  0 0.12 0  0.02 0.12 0  0.04 0.12 0  0.06 0.12 0  0.08 0.12 0  0.1 0.12 0  0.12 0.12 0  0.14 0.12 0  0.16 0.12 0  0.18 0.12 0  0.2 0.12 0  0.22 0.12 0  0.24 0.12 0  0.26 0.12 0  0.28 0.12 0  0.3 0.12 0  0.32 0.12 0  0.34 0.12 0  0.36 0.12 0  0.38 0.12 0  0.4 0.12 0  0.42 0.12 0  0.44 0.12 0  0.46 0.12 0  0.48 0.12 0  0.5 0.12 0  0.52 0.12 0  0.54 0.12 0  0.5600000000000001 0.12 0  0.58 0.12 0  0.6 0.12 0  0.62 0.12 0  0.64 0.12 0  0.66 0.12 0  0.68 0.12 0  0.7 0.12 0  0.72 0.12 0  0.74 0.12 0  0.76 0.12 0  0.78 0.12 0  0.8 0.12 0  0.82 0.12 0  0.84 0.12 0  0.86 0.12 0  0.88 0.12 0  0.9 0.12 0  0.92 0.12 0  0.9399999999999999 0.12 0  0.96 0.12 0  0.98 0.12 0  1 0.12 0  1.02 0.12 0  1.04 0.12 0  1.06 0.12 0  1.08 0.12 0  1.1 0.12 0  1.12 0.12 0  1.14 0.12 0  1.16 0.12 0  1.18 0.12 0  1.2 0.12 0  1.22 0.12 0  1.24 0.12 0  1.26 0.12 0  1.28 0.12 0  1.3 0.12 0  1.32 0.12 0  1.34 0.12 0  1.36 0.12 0  1.38 0.12 0  1.4 0.12 0  1.42 0.12 0  1.44 0.12 0  1.46 0.12 0  1.48 0.12 0  1.5 0.12 0  1.52 0.12 0  1.54 0.12 0  1.56 0.12 0  1.58 0.12 0  1.6 0.12 0  1.62 0.12 0  1.64 0.12 0  1.66 0.12 0  1.68 0.12 0  1.7 0.12 0  1.72 0.12 0  1.74 0.12 0  1.76 0.12 0  1.78 0.12 0  1.8 0.12 0  1.82 0.12 0  1.84 0.12 0  1.86 0.12 0  1.88 0.12 0  1.9 0.12 0  1.92 0.12 0  1.94 0.12 0  1.96 0.12 0  1.98 0.12 0  2 0.12 0  0 0.14 0  0.02 0.14 0  0.04 0.14 0  0.06 0.14 0  0.08 0.14 0  0.1 0.14 0  0.12 0.14 0  0.14 0.14 0  0.16 0.14 0  0.18 0.14 0  0.2 0.14 0  0.22 0.14 0  0.24 0.14 0  0.26 0.14 0  0.28 0.14 0  0.3 0.14 0  0.32 0.14 0  0.34 0.14 0  0.36 0.14 0  0.38 0.14 0  0.4 0.14 0  0.42 0.14 0  0.44 0.14 0  0.46 0.14 0  0.48 0.14 0  0.5 0.14 0  0.52 0.14 0  0.54 0.14 0  0.5600000000000001 0.14 0  0.58 0.14 0  0.6 0.14 0  0.62 0.14 0  0.64 0.14 0  0.66 0.14 0  0.68 0.14 0  0.7 0.14 0  0.72 0.14 0  0.74 0.14 0  0.76 0.14 0  0.78 0.14 0  0.8 0.14 0  0.82 0.14 0  0.84 0.14 0  0.86 0.14 0  0.88 0.14 0  0.9 0.14 0  0.92 0.14 0  0.9399999999999999 0.14 0  0.96 0.14 0  0.98 0.14 0  1 0.14 0  1.02 0.14 0  1.04 0.14 0  1.06 0.14 0  1.08 0.14 0  1.1 0.14 0  1.12 0.14 0  1.14 0.14 0  1.16 0.14 0  1.18 0.14 0  1.2 0.14 0  1.22 0.14 0  1.24 0.14 0  1.26 0.14 0  1.28 0.14 0  1.3 0.14 0  1.32 0.14 0  1.34 0.14 0  1.36 0.14 0  1.38 0.14 0  1.4 0.14 0  1.42 0.14 0  1.44 0.14 0  1.46 0.14 0  1.48 0.14 0  1
[...]
<PointData  Scalars="sols[i]"> 
<DataArray  type="Float64"  Name="sols[i]"  format="ascii">3.3013054307448469e-01  2.6917840007234733e-01  2.6917838440014036e-01  2.6917835722434597e-01  2.6917831537067488e-01  2.6917825750898622e-01  2.6917819063385484e-01  2.6917813778793981e-01  2.6917814570757870e-01  2.6917829201186927e-01  2.6917869171680370e-01  2.6917950279579256e-01  2.6918093041619251e-01  2.6918322940372225e-01  2.6918670444828213e-01  2.6919170758548938e-01  2.6919863257947563e-01  2.6920790599396061e-01  2.6921997495866989e-01  2.6923529189619227e-01  2.6925429674495804e-01  2.6927739747023444e-01  2.6930494987112746e-01  2.6933723784402269e-01  2.6937445533149584e-01  2.6941669115642281e-01  2.6946391780796375e-01  2.6951598501473012e-01  2.6957261862951215e-01  2.6963342499020571e-01  2.6969790055287690e-01  2.6976544625801002e-01  2.6983538582758648e-01  2.6990698702280269e-01  2.6997948482521211e-01  2.7005210552437031e-01  2.7012409077538063e-01  2.7019472079619056e-01  2.7026333597255631e-01  2.7032935619662829e-01  2.7039229725799102e-01  2.7045178351929139e-01  2.7050755594691939e-01  2.7055947436583105e-01  2.7060751264202498e-01  2.7065174548825238e-01  2.7069232589761844e-01  2.7072945300267975e-01  2.7076333155067073e-01  2.7079412615987430e-01  2.7082191582960841e-01  2.7084665626986759e-01  2.7086815866595804e-01  2.7088609255238016e-01  2.7090001684397463e-01  2.7090943683595059e-01  2.7091387743392514e-01  2.7091295652136421e-01  2.7090644011818732e-01  2.7089426460592503e-01  2.7087652013716307e-01  2.7085340032288541e-01  2.7082513238134009e-01  2.7079190621580251e-01  2.7075381977836571e-01  2.7071085302819681e-01  2.7066287597621841e-01  2.7060968945863778e-01  2.7055109144118089e-01  2.7048695745484774e-01  2.7041732163481635e-01  2.7034244498451121e-01  2.7026285978794723e-01  2.7017938305007461e-01  2.7009309669137405e-01  2.7000529709261634e-01  2.6991742069237695e-01  2.6983095511953936e-01  2.6974734652306809e-01  2.6966791335509510e-01  2.6959377511554949e-01  2.6952580188133990e-01  2.6946458731095874e-01  2.6941044474030945e-01  2.6936342341036973e-01  2.6932334010604880e-01  2.6928982067815216e-01  2.6926234602531629e-01  2.6924029793759813e-01  2.6922300146383760e-01  2.6920976185311796e-01  2.6919989536383021e-01  2.6919275413226545e-01  2.6918774573729021e-01  2.6918434808060893e-01  2.6918211983749024e-01  2.6918070629773927e-01  2.6917984033464443e-01  2.6917933865089833e-01  2.6917909254713340e-01  4.0795980361337519e-01  2.6917839796170417e-01  1.6722293045293407e-01  1.6722295889636099e-01  1.6722301543645507e-01  1.6722310147922548e-01  1.6722321976866208e-01  1.6722337841458115e-01  1.6722359266367037e-01  1.6722388588553841e-01  1.6722429194064123e-01  1.6722485989674243e-01  1.6722566129295693e-01  1.6722679960892106e-01  1.6722842106218422e-01  1.6723072536835204e-01  1.6723397475089766e-01  1.6723849935096702e-01  1.6724469729788985e-01  1.6725302806518028e-01  1.6726399833215586e-01  1.6727814034541616e-01  1.6729598364501605e-01  1.6731802188186012e-01  1.6734467718915833e-01  1.6737626507182482e-01  1.6741296295962493e-01  1.6745478539193162e-01  1.6750156827670229e-01  1.6755296386004470e-01  1.6760844706582870e-01  1.6766733285291646e-01  1.6772880332976398e-01  1.6779194268040398e-01  1.6785577756831627e-01  1.6791932061612663e-01  1.6798161477189844e-01  1.6804177677956342e-01  1.6809903845086807e-01  1.6815278485507354e-01  1.6820258877440994e-01  1.6824824072003755e-01  1.6828977341560900e-01  1.6832747895137434e-01  1.6836191589584906e-01  1.6839390272577504e-01  1.6842449329587550e-01  1.6845493008459139e-01  1.6848657199766046e-01  1.6852079587676375e-01  1.6855887461583258e-01  1.6860183964689338e-01  1.6865034077861907e-01  1.6870452076043888e-01  1.6876392403084411e-01  1.6882745752012929e-01  1.6889341539828140e-01  1.6895956981189297e-01  1.6902331803804660e-01  1.6908186638438716e-01  1.6913242582545029e-01  1.6917239552070823e-01  1.6919951727633342e-01  1.6921199341785656e-01  1.6920856815514629e-01  1.6918857559257486e-01  1.6915195649526224e-01  1.6909924370959561e-01  1.6903151580914580e-01  1.6895032114660896e-01  1.6885757874191956e-01  1.6875546598818197e-01  1.6864630430737090e-01  1.6853245240668302e-01  1.6841621364417381e-01  1.6829976054969734e-01  1.6818507677351652e-01  1.6807391506628339e-01  1.6796776925580939e-01  1.6786785825081371e-01  1.6777512049338733e-01  1.6769021769092585e-01  1.6761354688991606e-01  1.6754525993716532e-01  1.6748528914719649e-01  1.6743337767154379e-01  1.6738911278834440e-01  1.6735196021884183e-01  1.6732129769367601e-01  1.6729644632791621e-01  1.6727669884981194e-01  1.6726134425689429e-01  1.6724968892801140e-01  1.6724107450211617e-01  1.6723489288756418e-01  1.6723059860485973e-01  1.6722771841559311e-01  1.6722585809678220e-01  1.6722470655200250e-01  1.6722403790205248e-01  1.6722370484084320e-01  2.6917908933131235e-01  2.6917837523166177e-01  1.6722298781889716e-01  1.6722302274366160e-01  1.6722310316725841e-01  1.6722323725092003e-01  1.6722343500448747e-01  1.6722370871905087e-01  1.6722407580101836e-01  1.6722456254763196e-01  1.6722520826759793e-01  1.6722606958913655e-01  1.6722722492006967e-01  1.6722877895883437e-01  1.6723086695558786e-01  1.6723365819734476e-01  1.6723735803090106e-01  1.6724220768991457e-01  1.6724848127204200e-01  1.6725647941007368e-01  1.6726651947413604e-01  1.6727892249554219e-01  1.6729399737453787e-01  1.6731202327901842e-01  1.6733323141642226e-01  1.6735778753193620e-01  1.6738577653051945e-01  1.6741719053035140e-01  1.6745192143786780e-01  1.6748975881074812e-01  1.6753039337914055e-01  1.6757342617147206e-01  1.6761838278867569e-01  1.6766473203615184e-01  1.6771190789079191e-01  1.6775933366666268e-01  1.6780644724160057e-01  1.6785272629110393e-01  1.6789771260220412e-01  1.6794103465491880e-01  1.6798242770869151e-01  1.6802175057352733e-01  1.6805899806413754e-01  1.6809430785188637e-01  1.6812796011355494e-01  1.6816036814568830e-01  1.6819205812235055e-01  1.6822363658584902e-01  1.6825574520237710e-01  1.6828900382644382e-01  1.6832394489417046e-01  1.6836094432369322e-01  1.6840015599145286e-01  1.6844145793335058e-01  1.6848441819564966e-01  1.6852828646818047e-01  1.6857201440161337e-01  1.6861430346466541e-01  1.6865367539461082e-01  1.6868855776638678e-01  1.6871737635799930e-01  1.6873864661308921e-01  1.6875105813771912e-01  1.6875354799240058e-01  1.6874535968100168e-01  1.6872608499344158e-01  1.6869568590612136e-01  1.6865449449247544e-01  1.6860319059387022e-01  1.6854275944216734e-01  1.6847443372934690e-01  1.6839962611172482e-01  1.6831985851811415e-01  1.6823669398853652e-01  1.6815167542556475e-01  1.6806627399097049e-01  1.6798184828508431e-01  1.6789961416396035e-01  1.6782062421465679e-01  1.6774575553391932e-01  1.6767570445366656e-01  1.6761098708098357e-01  1.6755194480990224e-01  1.6749875418683147e-01  1.6745144060069561e-01  1.6740989522058902e-01  1.6737389446926479e-01  1.6734312117548836e-01  1.6731718646027735e-01  1.6729565141889111e-01  1.6727804775908287e-01  1.6726389670794237e-01  1.6725272564632368e-01  1.6724408201834745e-01  1.6723754408127300e-01  1.6723272808839099e-01  1.6722929177870421e-01  1.6722693504180294e-01  1.6722540092605101e-01  1.6722448338387630e-01  1.6722403418926307e-01  2.6917932047220500e-01  2.6917833098859179e-01  1.6722311336988416e-01  1.6722317492907621e-01  1.6722330390611928e-01  1.6722351230261639e-01  1.6722381798191038e-01  1.6722424090023380e-01  1.6722480448336866e-01  1.6722554016410329e-01  1.6722649224352612e-01  1.6722772176305609e-01  1.6722930901101388e-01  1.6723135466032563e-01  1.6723397960282468e-01  1.6723732351397677e-01  1.6724154215874104e-01  1.6724680347269716e-01  1.6725328252046337e-01  1.6726115552542287e-01  1.6727059325523802e-01  1.6728175411354157e-01  1.6729477731429715e-01  1.6730977649764023e-01  1.6732683409231866e-01  1.6734599665778982e-01  1.6736727136935461e-01  1.6739062375840089e-01  1.6741597679242542e-01  1.6744321137110646e-01  1.6747216831395342e-01  1.6750265190895991e-01  1.6753443506998916e-01  1.6756726610667347e-01  1.6760087704118840e-01  1.6763499331226997e-01  1.6766934459404767e-01  1.6770367633530062e-01  1.6773776150234437e-01  1.6777141189060824e-01  1.6780448825512542e-01  1.6783690839734700e-01  1.6786865224187925e-01  1.6789976286588593e-01  1.6793034245212307e-01  1.6796054228890858e-01  1.6799054630607449e-01  1.6802054826454155e-01  1.6805072360717929e-01  1.6808119804803706e-01  1.6811201604831558e-01  1.6814311313857752e-01  1.6817429629825523e-01  1.6820523604071688e-01  1.6823547236745282e-01  1.6826443447745909e-01  1.6829147145340873e-01  1.6831588881659468e-01  1.6833698483618326e-01  1.6835408142539110e-01  1.6836654696170492e-01  1.6837381150837649e-01  1.6837537792435112e-01  1.6837083396157951e-01  1.6835986943032422e-01  1.6834229904886400e-01  1.6831808753023222e-01  1.6828737092401569e-01  1.6825046817654715e-01  1.6820787886128688e-01  1.6816026597771916e-01  1.6810842560464856e-01  1.6805324736546251e-01  1.6799567079980268e-01  1.6793664276483633e-01  1.6787708004930471e-01  1.6781783981038098e-01  1.6775969868889898e-01  1.6770333995599790e-01  1.6764934708448259e-01  1.6759820181283133e-01  1.6755028498602584e-01  1.6750587900603303e-01  1.6746517136365577e-01  1.6742825924996263e-01  1.6739515554140960e-01  1.6736579649404695e-01  1.6734005131943039e-01  1.6731773353803475e-01  1.6729861370681676e-01  1.6728243286054523e-01  1.6726891581733985e-01  1.6725778337212055e-01  1.6724876232531427e-01  1.6724159229343910e-01  1.6723602845192018e-01  1.6723184009199593e-01  1.6722880674191054e-01  1.6722671764502767e-01  1.6722538784051133e-01  1.6722469196314868e-01  2.6917978524190395e-01  2.6917825148481522e-01  1.6722334756615742e-01  1.6722346515878062e-01  1.6722367046672917e-01  1.6722398182902556e-01  1.6722442770014234e-01  1.6722503766171817e-01  1.6722584265770560e-01  1.6722687995178992e-01  1.6722819821542886e-01  1.6722986091722578e-01  1.6723194752912174e-01  1.6723455262526160e-01  1.6723778314581486e-01  1.6724175416997716e-01  1.6724658360014022e-01  1.6725238622997654e-01  1.6725926773765876e-01  1.6726731918183974e-01  1.6727661255376214e-01  1.6728719783646695e-01  1.6729910184055197e-01  1.6731232884526240e-01  1.6732686281379519e-01  1.6734267072483860e-01  1.6735970641826453e-01  1.6737791432226681e-01  1.6739723251641836e-01  1.6741759477043494e-01  1.6743893144461958e-01  1.6746116939929379e-01  1.6748423128994835e-01  1.6750803477963380e-01  1.6753249224766070e-01  1.6755751149988443e-01  1.6758299780211219e-01  1.6760885729810593e-01  1.6763500158210409e-01  1.6766135291455853e-01  1.6768784933028513e-01  1.6771444871130906e-01  1.6774113080087177e-01  1.6776789614434240e-01  1.6779476109142635e-01  1.6782174832213878e-01  1.6784887289747477e-01  1.6787612458415554e-01  1.6790344810429175e-01  1.6793072388449476e-01  1.6795775262053392e-01  1.6798424728110395e-01  1.6800983580059756e-01  1.6803407648390670e-01  1.6805648604640505e-01  1.6807657743046647e-01  1.6809390150859926e-01  1.6810808436702204e-01  1.6811885149595704e-01  1.6812603279729912e-01  1.6812954706295774e-01  1.6812937018075741e-01  1.6812549696743342e-01  1.6811790979569732e-01  1.6810656536980206e-01  1.6809140422230193e-01  1.6807237916693379e-01  1.6804949302337585e-01  1.6802283426547346e-01  1.6799260126594762e-01  1.6795910987504664e-01  1.6792278360371068e-01  1.6788412957731039e-01  1.6784370599999074e-01  1.6780208777019823e-01  1.6775983613089751e-01  1.6771747624410246e-01  1.6767548405565622e-01  1.6763428150839746e-01  1.6759423761800304e-01  1.6755567237366084e-01  1.6751886077830974e-01  1.6748403529632389e-01  1.6745138614164951e-01  1.6742105986391151e-01  1.6739315734317542e-01  1.6736773250569950e-01  1.6734479287403897e-01  1.6732430259851369e-01  1.6730618804003791e-01  1.6729034541727697e-01  1.6727664957439795e-01  1.6726496260342152e-01  1.6725514088212953e-01  1.6724703910558042e-01  1.6724051022533340e-01  1.6723540116401728e-01  1.6723154633929335e-01  1.6722876590192323e-01  1.6722688792720111e-01  1.6722581677467108e-01  2.6918056880039942e-01  2.6917811569000738e-01  1.6722376055311139e-01  1.6722397038063039e-01  1.6722428156804722e-01  1.6722472579017736e-01  1.6722534781124337e-01  1.6722618849293486e-01  1.6722728623627722e-01  1.6722868368062513e-01  1.6723043330562271e-01  1.6723260043704674e-01  1.6723526348454518e-01  1.6723851166575118e-01  1.6724244063627788e-01  1.6724714654522621e-01  1.6725271913980677e-01  1.6725923465094511e-01  1.6726674927236251e-01  1.6727529405838690e-01  1.6728487197792388e-01  1.6729545765636281e-01  1.6730700001759310e-01  1.6731942763952920e-01  1.6733265622441115e-01  1.6734659724301118e-01  1.6736116661394071e-01  1.6737629226550535e-01  1.6739191959979099e-01  1.6740801420734033e-01  1.6742456161237518e-01  1.6744156429411527e-01  1.6745903665375322e-01  1.6747699890419607e-01  1.6749547098893552e-01  1.6751446755908050e-01  1.6753399477251976e-01  1.6755404928689277e-01  1.6757461937693480e-01  1.6759568768834357e-01  1.6761723479493987e-01  1.6763924248346512e-01  1.6766169557101582e-01  1.6768458108586320e-01  1.6770788384347812e-01  1.6773157785939291e-01  1.6775561367988684e-01  1.6777990256389669e-01  1.6780429943693545e-01  1.6782858750586854e-01  1.6785246814955523e-01  1.6787555992639219e-01  1.6789741002393557e-01  1.6791752004755056e-01  1.6793538565631283e-01  1.6795054630577166e-01  1.6796263752178536e-01  1.6797143470270742e-01  1.6797687674579595e-01  1.6797906128838155e-01  1.6797820954466311e-01  1.6797460614051146e-01  1.6796852811611770e-01  1.6796018333843574e-01  1.6794967658251106e-01  1.6793701131094971e-01  1.6792212243767762e-01  1.6790492653361347e-01  1.6788537355393585e-01  1.6786348695771336e-01  1.6783938448418279e-01  1.6781327775242708e-01  1.6778545397994563e-01  1.6775624667340855e-01  1.6772600359583781e-01  1.6769505952625061e-01  1.6766371876428965e-01  1.6763224894005083e-01  1.6760088452887911e-01  1.6756983634906544e-01  1.6753930259618544e-01  1.6750947754465736e-01  1.6748055550251700e-01  1.6745272937896552e-01  1.6742618479171933e-01  1.6740109165462563e-01  1.6737759552106424e-01  1.6735581068824359e-01  1.6733581639094774e-01  1.6731765656678618e-01  1.6730134285694992e-01  1.6728685984264802e-01  1.6727417106727116e-01  1.6726322418274703e-01  1.6725395361610634e-01  1.6724627955229898e-01  1.6724010293805774e-01  1.6723529805241613e-01  1.6723170885124986e-01  1.6722917224162920e-01  1.6722761986016582e-01  2.6918181066939323e-01  2.6917789682895887e-01  1.6722446683416994e-01  1.6722479902660328e-01  1.6722523910830978e-01  1.6722584187467143e-01  1.6722667529733698e-01  1.6722779247355674e-01  1.6722923801639272e-01  1.6723105867866445e-01  1.6723331008040171e-01  1.6723605939384811e-01  1.6723938466362132e-01  1.6724337136298598e-01  1.6724810674891716e-01  1.6725367264096655e-01  1.6726013737828907e-01  1.6726754785370401e-01  1.6727592262663610e-01  1.6728524712611106e-01  1.6729547183347099e-01  1.6730651405954547e-01  1.6731826350136103e-01  1.6733059122413568e-01  1.6734336116151688e-01  1.6735644278239165e-01  1.6736972333372716e-01  1.6738311807696049e-01  1.6739657718653597e-01  1.6741008843898253e-01  1.6742367542612518e-01  1.6743739168727259e-01  1.6745131176664596e-01  1.6746552065018563e-01  1.6748010322170351e-01  1.6749513525910242e-01  1.6751067710379855e-01  1.6752677058144985e-01  1.6754343915049802e-01  1.6756069070610838e-01  1.6757852202967702e-01  1.6759692357336947e-01  1.6761588311606865e-01  1.6763538683721055e-01  1.6765541655879587e-01  1.6767594234339259e-01  1.6769691033803563e-01  1.6771822671159353e-01  1.6773973966716119e-01  1.6776122265442786e-01  1.6778236281619821e-01  1.6780275910082743e-01  1.6782193410427984e-01  1.6783936238021058e-01  1.6785451555057901e-01  1.6786692093981836e-01  1.6787622543974667e-01  1.6788225092411868e-01  1.6788502574985734e-01  1.6788478105532365e-01  1.6788190746078252e-01  1.6787687613046259e-01  1.6787014129461278e-01  1.6786205244740718e-01  1.6785280299948402e-01  1.6784242731556770e-01  1.6783083951365180e-01  1.6781789544024645e-01  1.6780345699571747e-01  1.6778744256116473e-01  1.6776985447998752e-01  1.6775078169226038e-01  1.6773038159707829e-01  1.6770884944142686e-01  1.6768638535170360e-01  1.6766316816965368e-01  1.6763934198274349e-01  1.6761501685708147e-01  1.6759028119985933e-01  1.6756522047732114e-01  1.6753993617747942e-01  1.6751455980919849e-01  1.6748925880288523e-01  1.6746423366007854e-01  1.6743970786179307e-01  1.6741591341516354e-01  1.6739307533983283e-01  1.6737139799181563e-01  1.6735105518936255e-01  1.6733218497817304e-01  1.6731488881980611e-01  1.6729923416543982e-01  1.6728525885426621e-01  1.6727297557032444e-01  1.6726237470266581e-01  1.6725342435131016e-01  1.6724606684389004e-01  1.6724021206278544e-01  1.6723573117344936e-01  1.6723247396336430e-01  1.6723038994533387e-01  2.6918370623859589e-01  2.6917756397839732e-01  1.6722563952466876e-01  1.6722609589034712e-01  1.6722666577009901e-01  1.6722743921085920e-01  1.6722851275009529e-01  1.6722995034263233e-01  1.6723179967824175e-01  1.6723410921334669e-01  1.6723693655267047e-01  1.6724035065349854e-01  1.6724442999516984e-01  1.6724925785747663e-01  1.6725491542832741e-01  1.6726147342571634e-01  1.6726898306133392e-01  1.6727746735586507e-01  1.6728691394875397e-01  1.6729727056494234e-01  1.6730844416869639e-01  1.6732030451386687e-01  1.6733269226597525e-01  1.6734543117938883e-01  1.6735834310771788e-01  1.6737126408551201e-01  1.6738405945915033e-01  1.6739663608641484e-01  1.6740894995469136e-01  1.6742100816097058e-01  1.6743286498944293e-01  1.6744461270306654e-01  1.6745636848769010e-01  1.6746825958138081e-01  1.6748040883675819e-01  1.6749292274398747e-01  1.6750588336262473e-01  1.6751934484069370e-01  1.6753333441901336e-01  1.6754785715275944e-01  1.6756290308286706e-01  1.6757845525796786e-01  1.6759449682899111e-01  1.6761101541445925e-01  1.6762800309650763e-01  1.6764545081336688e-01  1.6766333662332500e-01  1.6768160835116044e-01  1.6770016243339420e-01  1.6771882218684242e-01  1.6773731996985786e-01  1.6775528847981971e-01  1.6777226646503562e-01  1.6778772322539454e-01  1.6780110424148290e-01  1.6781189660151299e-01  1.6781970627972614e-01  1.6782433058817930e-01  1.6782580555393767e-01  1.6782441315661525e-01  1.6782063968050226e-01  1.6781508363224712e-01  1.6780833159795167e-01  1.6780084106505125e-01  1.6779286970256602e-01  1.6778446868515917e-01  1.6777553015404220e-01  1.6776586275185662e-01  1.6775526804457749e-01  1.6774359858445648e-01  1.6773078824292886e-01  1.6771685378062592e-01  1.6770187307146339e-01  1.6768595007802745e-01  1.6766917880601725e-01  1.6765161722454319e-01  1.6763327792333652e-01  1.6761413667007399e-01  1.6759415489696908e-01  1.6757330886148156e-01  1.6755161737853203e-01  1.6752916141588226e-01  1.6750609171976175e-01  1.6748262398272684e-01  1.6745902389397291e-01  1.6743558611821310e-01  1.6741261167280522e-01  1.6739038752955934e-01  1.6736917099767981e-01  1.6734918001015342e-01  1.6733058917029711e-01  1.6731353048427017e-01  1.6729809715857635e-01  1.6728434867781469e-01  1.6727231555874014e-01  1.6726200253464876e-01  1.6725338908242296e-01  1.6724642571266202e-01  1.6724102492384621e-01  1.6723706344292658e-01  1.6723449017835651e-01  2.6918650557543722e-01  2.6917708287984898e-01  1.6722752313291508e-01  1.6722804622826182e-01  1.6722870299658835e-01  1.6722963319315134e-01  1.6723096205032922e-01  1.6723275814836602e-01  1.6723506588989370e-01  1.6723793118659297e-01  1.6724141155186262e-01  1.6724557724918668e-01  1.6725050774293768e-01  1.6725628531192832e-01  1.6726298670541240e-01  1.6727067354390099e-01  1.6727938231812026e-01  1.6728911506122054e-01  1.6729983193356793e-01  1.6731144699940931e-01  1.6732382835988369e-01  1.6733680346749741e-01  1.67350169796