<?xml version="1.0"?>
<VTKFile type="UnstructuredGrid"  version="0.1"  >
<UnstructuredGrid>
<Piece  NumberOfPoints="5151" NumberOfCells="10000">
<Points>
<DataArray  type="Float64"  NumberOfComponents="3"  format="ascii">0 0 0  0.02 0 0  0.04 0 0  0.06 0 0  0.08 0 0  0.1 0 0  0.12 0 0  0.14 0 0  0.16 0 0  0.18 0 0  0.2 0 0  0.22 0 0  0.24 0 0  0.26 0 0  0.28 0 0  0.3 0 0  0.32 0 0  0.34 0 0  0.36 0 0  0.38 0 0  0.4 0 0  0.42 0 0  0.44 0 0  0.46 0 0  0.48 0 0  0.5 0 0  0.52 0 0  0.54 0 0  0.5600000000000001 0 0  0.58 0 0  0.6 0 0  0.62 0 0  0.64 0 0  0.66 0 0  0.68 0 0  0.7 0 0  0.72 0 0  0.74 0 0  0.76 0 0  0.78 0 0  0.8 0 0  0.82 0 0  0.84 0 0  0.86 0 0  0.88 0 0  0.9 0 0  0.92 0 0  0.9399999999999999 0 0  0.96 0 0  0.98 0 0  1 0 0  1.02 0 0  1.04 0 0  1.06 0 0  1.08 0 0  1.1 0 0  1.12 0 0  1.14 0 0  1.16 0 0  1.18 0 0  1.2 0 0  1.22 0 0  1.24 0 0  1.26 0 0  1.28 0 0  1.3 0 0  1.32 0 0  1.34 0 0  1.36 0 0  1.38 0 0  1.4 0 0  1.42 0 0  1.44 0 0  1.46 0 0  1.48 0 0  1.5 0 0  1.52 0 0  1.54 0 0  1.56 0 0  1.58 0 0  1.6 0 0  1.62 0 0  1.64 0 0  1.66 0 0  1.68 0 0  1.7 0 0  1.72 0 0  1.74 0 0  1.76 0 0  1.78 0 0  1.8 0 0  1.82 0 0  1.84 0 0  1.86 0 0  1.88 0 0  1.9 0 0  1.92 0 0  1.94 0 0  1.96 0 0  1.98 0 0  2 0 0  0 0.02 0  0.02 0.02 0  0.04 0.02 0  0.06 0.02 0  0.08 0.02 0  0.1 0.02 0  0.12 0.02 0  0.14 0.02 0  0.16 0.02 0  0.18 0.02 0  0.2 0.02 0  0.22 0.02 0  0.24 0.02 0  0.26 0.02 0  0.28 0.02 0  0.3 0.02 0  0.32 0.02 0  0.34 0.02 0  0.36 0.02 0  0.38 0.02 0  0.4 0.02 0  0.42 0.02 0  0.44 0.02 0  0.46 0.02 0  0.48 0.02 0  0.5 0.02 0  0.52 0.02 0  0.54 0.02 0  0.5600000000000001 0.02 0  0.58 0.02 0  0.6 0.02 0  0.62 0.02 0  0.64 0.02 0  0.66 0.02 0  0.68 0.02 0  0.7 0.02 0  0.72 0.02 0  0.74 0.02 0  0.76 0.02 0  0.78 0.02 0  0.8 0.02 0  0.82 0.02 0  0.84 0.02 0  0.86 0.02 0  0.88 0.02 0  0.9 0.02 0  0.92 0.02 0  0.9399999999999999 0.02 0  0.96 0.02 0  0.98 0.02 0  1 0.02 0  1.02 0.02 0  1.04 0.02 0  1.06 0.02 0  1.08 0.02 0  1.1 0.02 0  1.12 0.02 0  1.14 0.02 0  1.16 0.02 0  1.18 0.02 0  1.2 0.02 0  1.22 0.02 0  1.24 0.02 0  1.26 0.02 0  1.28 0.02 0  1.3 0.02 0  1.32 0.02 0  1.34 0.02 0  1.36 0.02 0  1.38 0.02 0  1.4 0.02 0  1.42 0.02 0  1.44 0.02 0  1.46 0.02 0  1.48 0.02 0  1.5 0.02 0  1.52 0.02 0  1.54 0.02 0  1.56 0.02 0  1.58 0.02 0  1.6 0.02 0  1.62 0.02 0  1.64 0.02 0  1.66 0.02 0  1.68 0.02 0  1.7 0.02 0  1.72 0.02 0  1.74 0.02 0  1.76 0.02 0  1.78 0.02 0  1.8 0.02 0  1.82 0.02 0  1.84 0.02 0  1.86 0.02 0  1.88 0.02 0  1.9 0.02 0  1.92 0.02 0  1.94 0.02 0  1.96 0.02 0  1.98 0.02 0  2 0.02 0  0 0.04 0  0.02 0.04 0  0.04 0.04 0  0.06 0.04 0  0.08 0.04 0  0.1 0.04 0  0.12 0.04 0  0.14 0.04 0  0.16 0.04 0  0.18 0.04 0  0.2 0.04 0  0.22 0.04 0  0.24 0.04 0  0.26 0.04 0  0.28 0.04 0  0.3 0.04 0  0.32 0.04 0  0.34 0.04 0  0.36 0.04 0  0.38 0.04 0  0.4 0.04 0  0.42 0.04 0  0.44 0.04 0  0.46 0.04 0  0.48 0.04 0  0.5 0.04 0  0.52 0.04 0  0.54 0.04 0  0.5600000000000001 0.04 0  0.58 0.04 0  0.6 0.04 0  0.62 0.04 0  0.64 0.04 0  0.66 0.04 0  0.68 0.04 0  0.7 0.04 0  0.72 0.04 0  0.74 0.04 0  0.76 0.04 0  0.78 0.04 0  0.8 0.04 0  0.82 0.04 0  0.84 0.04 0  0.86 0.04 0  0.88 0.04 0  0.9 0.04 0  0.92 0.04 0  0.9399999999999999 0.04 0  0.96 0.04 0  0.98 0.04 0  1 0.04 0  1.02 0.04 0  1.04 0.04 0  1.06 0.04 0  1.08 0.04 0  1.1 0.04 0  1.12 0.04 0  1.14 0.04 0  1.16 0.04 0  1.18 0.04 0  1.2 0.04 0  1.22 0.04 0  1.24 0.04 0  1.26 0.04 0  1.28 0.04 0  1.3 0.04 0  1.32 0.04 0  1.34 0.04 0  1.36 0.04 0  1.38 0.04 0  1.4 0.04 0  1.42 0.04 0  1.44 0.04 0  1.46 0.04 0  1.48 0.04 0  1.5 0.04 0  1.52 0.04 0  1.54 0.04 0  1.56 0.04 0  1.58 0.04 0  1.6 0.04 0  1.62 0.04 0  1.64 0.04 0  1.66 0.04 0  1.68 0.04 0  1.7 0.04 0  1.72 0.04 0  1.74 0.04 0  1.76 0.04 0  1.78 0.04 0  1.8 0.04 0  1.82 0.04 0  1.84 0.04 0  1.86 0.04 0  1.88 0.04 0  1.9 0.04 0  1.92 0.04 0  1.94 0.04 0  1.96 0.04 0  1.98 0.04 0  2 0.04 0  0 0.06 0  0.02 0.06 0  0.04 0.06 0  0.06 0.06 0  0.08 0.06 0  0.1 0.06 0  0.12 0.06 0  0.14 0.06 0  0.16 0.06 0  0.18 0.06 0  0.2 0.06 0  0.22 0.06 0  0.24 0.06 0  0.26 0.06 0  0.28 0.06 0  0.3 0.06 0  0.32 0.06 0  0.34 0.06 0  0.36 0.06 0  0.38 0.06 0  0.4 0.06 0  0.42 0.06 0  0.44 0.06 0  0.46 0.06 0  0.48 0.06 0  0.5 0.06 0  0.52 0.06 0  0.54 0.06 0  0.5600000000000001 0.06 0  0.58 0.06 0  0.6 0.06 0  0.62 0.06 0  0.64 0.06 0  0.66 0.06 0  0.68 0.06 0  0.7 0.06 0  0.72 0.06 0  0.74 0.06 0  0.76 0.06 0  0.78 0.06 0  0.8 0.06 0  0.82 0.06 0  0.84 0.06 0  0.86 0.06 0  0.88 0.06 0  0.9 0.06 0  0.92 0.06 0  0.9399999999999999 0.06 0  0.96 0.06 0  0.98 0.06 0  1 0.06 0  1.02 0.06 0  1.04 0.06 0  1.06 0.06 0  1.08 0.06 0  1.1 0.06 0  1.12 0.06 0  1.14 0.06 0  1.16 0.06 0  1.18 0.06 0  1.2 0.06 0  1.22 0.06 0  1.24 0.06 0  1.26 0.06 0  1.28 0.06 0  1.3 0.06 0  1.32 0.06 0  1.34 0.06 0  1.36 0.06 0  1.38 0.06 0  1.4 0.06 0  1.42 0.06 0  1.44 0.06 0  1.46 0.06 0  1.48 0.06 0  1.5 0.06 0  1.52 0.06 0  1.54 0.06 0  1.56 0.06 0  1.58 0.06 0  1.6 0.06 0  1.62 0.06 0  1.64 0.06 0  1.66 0.06 0  1.68 0.06 0  1.7 0.06 0  1.72 0.06 0  1.74 0.06 0  1.76 0.06 0  1.78 0.06 0  1.8 0.06 0  1.82 0.06 0  1.84 0.06 0  1.86 0.06 0  1.88 0.06 0  1.9 0.06 0  1.92 0.06 0  1.94 0.06 0  1.96 0.06 0  1.98 0.06 0  2 0.06 0  0 0.08 0  0.02 0.08 0  0.04 0.08 0  0.06 0.08 0  0.08 0.08 0  0.1 0.08 0  0.12 0.08 0  0.14 0.08 0  0.16 0.08 0  0.18 0.08 0  0.2 0.08 0  0.22 0.08 0  0.24 0.08 0  0.26 0.08 0  0.28 0.08 0  0.3 0.08 0  0.32 0.08 0  0.34 0.08 0  0.36 0.08 0  0.38 0.08 0  0.4 0.08 0  0.42 0.08 0  0.44 0.08 0  0.46 0.08 0  0.48 0.08 0  0.5 0.08 0  0.52 0.08 0  0.54 0.08 0  0.5600000000000001 0.08 0  0.58 0.08 0  0.6 0.08 0  0.62 0.08 0  0.64 0.08 0  0.66 0.08 0  0.68 0.08 0  0.7 0.08 0  0.72 0.08 0  0.74 0.08 0  0.76 0.08 0  0.78 0.08 0  0.8 0.08 0  0.82 0.08 0  0.84 0.08 0  0.86 0.08 0  0.88 0.08 0  0.9 0.08 0  0.92 0.08 0  0.9399999999999999 0.08 0  0.96 0.08 0  0.98 0.08 0  1 0.08 0  1.02 0.08 0  1.04 0.08 0  1.06 0.08 0  1.08 0.08 0  1.1 0.08 0  1.12 0.08 0  1.14 0.08 0  1.16 0.08 0  1.18 0.08 0  1.2 0.08 0  1.22 0.08 0  1.24 0.08 0  1.26 0.08 0  1.28 0.08 0  1.3 0.08 0  1.32 0.08 0  1.34 0.08 0  1.36 0.08 0  1.38 0.08 0  1.4 0.08 0  1.42 0.08 0  1.44 0.08 0  1.46 0.08 0  1.48 0.08 0  1.5 0.08 0  1.52 0.08 0  1.54 0.08 0  1.56 0.08 0  1.58 0.08 0  1.6 0.08 0  1.62 0.08 0  1.64 0.08 0  1.66 0.08 0  1.68 0.08 0  1.7 0.08 0  1.72 0.08 0  1.74 0.08 0  1.76 0.08 0  1.78 0.08 0  1.8 0.08 0  1.82 0.08 0  1.84 0.08 0  1.86 0.08 0  1.88 0.08 0  1.9 0.08 0  1.92 0.08 0  1.94 0.08 0  1.96 0.08 0  1.98 0.08 0  2 0.08 0  0 0.1 0  0.02 0.1 0  0.04 0.1 0  0.06 0.1 0  0.08 0.1 0  0.1 0.1 0  0.12 0.1 0  0.14 0.1 0  0.16 0.1 0  0.18 0.1 0  0.2 0.1 0  0.22 0.1 0  0.24 0.1 0  0.26 0.1 0  0.28 0.1 0  0.3 0.1 0  0.32 0.1 0  0.34 0.1 0  0.36 0.1 0  0.38 0.1 0  0.4 0.1 0  0.42 0.1 0  0.44 0.1 0  0.46 0.1 0  0.48 0.1 0  0.5 0.1 0  0.52 0.1 0  0.54 0.1 0  0.5600000000000001 0.1 0  0.58 0.1 0  0.6 0.1 0  0.62 0.1 0  0.64 0.1 0  0.66 0.1 0  0.68 0.1 0  0.7 0.1 0  0.72 0.1 0  0.74 0.1 0  0.76 0.1 0  0.78 0.1 0  0.8 0.1 0  0.82 0.1 0  0.84 0.1 0  0.86 0.1 0  0.88 0.1 0  0.9 0.1 0  0.92 0.1 0  0.9399999999999999 0.1 0  0.96 0.1 0  0.98 0.1 0  1 0.1 0  1.02 0.1 0  1.04 0.1 0  1.06 0.1 0  1.08 0.1 0  1.1 0.1 0  1.12 0.1 0  1.14 0.1 0  1.16 0.1 0  1.18 0.1 0  1.2 0.1 0  1.22 0.1 0  1.24 0.1 0  1.26 0.1 0  1.28 0.1 0  1.3 0.1 0  1.32 0.1 0  1.34 0.1 0  1.36 0.1 0  1.38 0.1 0  1.4 0.1 0  1.42 0.1 0  1.44 0.1 0  1.46 0.1 0  1.48 0.1 0  1.5 0.1 0  1.52 0.1 0  1.54 0.1 0  1.56 0.1 0  1.58 0.1 0  1.6 0.1 0  1.62 0.1 0  1.64 0.1 0  1.66 0.1 0  1.68 0.1 0  1.7 0.1 0  1.72 0.1 0  1.74 0.1 0  1.76 0.1 0  1.78 0.1 0  1.8 0.1 0  1.82 0.1 0  1.84 0.1 0  1.86 0.1 0  1.88 0.1 0  1.9 0.1 0  1.92 0.1 0  1.94 0.1 0  1.96 0.1 0  1.98 0.1 0  2 0.1 0  0 0.12 0  0.02 0.12 0  0.04 0.12 0  0.06 0.12 0  0.08 0.12 0  0.1 0.12 0  0.12 0.12 0  0.14 0.12 0  0.16 0.12 0  0.18 0.12 0  0.2 0.12 0  0.22 0.12 0  0.24 0.12 0  0.26 0.12 0  0.28 0.12 0  0.3 0.12 0  0.32 0.12 0  0.34 0.12 0  0.36 0.12 0  0.38 0.12 0  0.4 0.12 0  0.42 0.12 0  0.44 0.12 0  0.46 0.12 0  0.48 0.12 0  0.5 0.12 0  0.52 0.12 0  0.54 0.12 0  0.5600000000000001 0.12 0  0.58 0.12 0  0.6 0.12 0  0.62 0.12 0  0.64 0.12 0  0.66 0.12 0  0.68 0.12 0  0.7 0.12 0  0.72 0.12 0  0.74 0.12 0  0.76 0.12 0  0.78 0.12 0  0.8 0.12 0  0.82 0.12 0  0.84 0.12 0  0.86 0.12 0  0.88 0.12 0  0.9 0.12 0  0.92 0.12 0  0.9399999999999999 0.12 0  0.96 0.12 0  0.98 0.12 0  1 0.12 0  1.02 0.12 0  1.04 0.12 0  1.06 0.12 0  1.08 0.12 0  1.1 0.12 0  1.12 0.12 0  1.14 0.12 0  1.16 0.12 0  1.18 0.12 0  1.2 0.12 0  1.22 0.12 0  1.24 0.12 0  1.26 0.12 0  1.28 0.12 0  1.3 0.12 0  1.32 0.12 0  1.34 0.12 0  1.36 0.12 0  1.38 0.12 0  1.4 0.12 0  1.42 0.12 0  1.44 0.12 0  1.46 0.12 0  1.48 0.12 0  1.5 0.12 0  1.52 0.12 0  1.54 0.12 0  1.56 0.12 0  1.58 0.12 0  1.6 0.12 0  1.62 0.12 0  1.64 0.12 0  1.66 0.12 0  1.68 0.12 0  1.7 0.12 0  1.72 0.12 0  1.74 0.12 0  1.76 0.12 0  1.78 0.12 0  1.8 0.12 0  1.82 0.12 0  1.84 0.12 0  1.86 0.12 0  1.88 0.12 0  1.9 0.12 0  1.92 0.12 0  1.94 0.12 0  1.96 0.12 0  1.98 0.12 0  2 0.12 0  0 0.14 0  0.02 0.14 0  0.04 0.14 0  0.06 0.14 0  0.08 0.14 0  0.1 0.14 0  0.12 0.14 0  0.14 0.14 0  0.16 0.14 0  0.18 0.14 0  0.2 0.14 0  0.22 0.14 0  0.24 0.14 0  0.26 0.14 0  0.28 0.14 0  0.3 0.14 0  0.32 0.14 0  0.34 0.14 0  0.36 0.14 0  0.38 0.14 0  0.4 0.14 0  0.42 0.14 0  0.44 0.14 0  0.46 0.14 0  0.48 0.14 0  0.5 0.14 0  0.52 0.14 0  0.54 0.14 0  0.5600000000000001 0.14 0  0.58 0.14 0  0.6 0.14 0  0.62 0.14 0  0.64 0.14 0  0.66 0.14 0  0.68 0.14 0  0.7 0.14 0  0.72 0.14 0  0.74 0.14 0  0.76 0.14 0  0.78 0.14 0  0.8 0.14 0  0.82 0.14 0  0.84 0.14 0  0.86 0.14 0  0.88 0.14 0  0.9 0.14 0  0.92 0.14 0  0.9399999999999999 0.14 0  0.96 0.14 0  0.98 0.14 0  1 0.14 0  1.02 0.14 0  1.04 0.14 0  1.06 0.14 0  1.08 0.14 0  1.1 0.14 0  1.12 0.14 0  1.14 0.14 0  1.16 0.14 0  1.18 0.14 0  1.2 0.14 0  1.22 0.14 0  1.24 0.14 0  1.26 0.14 0  1.28 0.14 0  1.3 0.14 0  1.32 0.14 0  1.34 0.14 0  1.36 0.14 0  1.38 0.14 0  1.4 0.14 0  1.42 0.14 0  1.44 0.14 0  1.46 0.14 0  1.48 0.14 0  1
[...]
<PointData  Scalars="sols[i]"> 
<DataArray  type="Float64"  Name="sols[i]"  format="ascii">4.2353522649559577e-02  3.3640572902182322e-02  3.3640572916740885e-02  3.3640572944968486e-02  3.3640572995137535e-02  3.3640573080511951e-02  3.3640573221501865e-02  3.3640573448837481e-02  3.3640573808754716e-02  3.3640574371726170e-02  3.3640575247088460e-02  3.3640576607329394e-02  3.3640578728329061e-02  3.3640582056506108e-02  3.3640587322564440e-02  3.3640595737929678e-02  3.3640609339876761e-02  3.3640631603015413e-02  3.3640668516608754e-02  3.3640730440029958e-02  3.3640835168505870e-02  3.3641012689481053e-02  3.3641311917783460e-02  3.3641808996138389e-02  3.3642615248797691e-02  3.3643880541597358e-02  3.3645785333499233e-02  3.3648514056096507e-02  3.3652206657891481e-02  3.3656896106560516e-02  3.3662453378062514e-02  3.3668565060146552e-02  3.3674756493374057e-02  3.3680458777102823e-02  3.3685105763862098e-02  3.3688233216663269e-02  3.3689551559750147e-02  3.3688984074423257e-02  3.3686674691613780e-02  3.3682963789796509e-02  3.3678323937045174e-02  3.3673264386992370e-02  3.3668233436283682e-02  3.3663553474208366e-02  3.3659405380337709e-02  3.3655851912875588e-02  3.3652877638266819e-02  3.3650425985091686e-02  3.3648425153559799e-02  3.3646802991410596e-02  3.3645494024971308e-02  3.3644441947790107e-02  3.3643599793501712e-02  3.3642928971011746e-02  3.3642397826743428e-02  3.3641980198150470e-02  3.3641654247533778e-02  3.3641401660807674e-02  3.3641207139654371e-02  3.3641058056114011e-02  3.3640944159691967e-02  3.3640857280487907e-02  3.3640791018123214e-02  3.3640740430836084e-02  3.3640701744819465e-02  3.3640672098976303e-02  3.3640649332171986e-02  3.3640631813084160e-02  3.3640618308327909e-02  3.3640607882529247e-02  3.3640599823723909e-02  3.3640593588099045e-02  3.3640588759131125e-02  3.3640585017246594e-02  3.3640582117093518e-02  3.3640579870303049e-02  3.3640578132235976e-02  3.3640576791676001e-02  3.3640575762770561e-02  3.3640574978756534e-02  3.3640574387157694e-02  3.3640573946216910e-02  3.3640573622346515e-02  3.3640573388375887e-02  3.3640573222362975e-02  3.3640573106761038e-02  3.3640573027773561e-02  3.3640572974790846e-02  3.3640572939859753e-02  3.3640572917179173e-02  3.3640572902633913e-02  3.3640572893384575e-02  3.3640572887524527e-02  3.3640572883807181e-02  3.3640572881437424e-02  3.3640572879920290e-02  3.3640572878952058e-02  3.3640572878346486e-02  3.3640572877988460e-02  3.3640572877810172e-02  6.2787926530757168e-02  3.3640572901566607e-02  2.0179535726964959e-02  2.0179535747044727e-02  2.0179535786995065e-02  2.0179535858624097e-02  2.0179535981526154e-02  2.0179536187624268e-02  2.0179536528635550e-02  2.0179537088495729e-02  2.0179538004108467e-02  2.0179539499739003e-02  2.0179541943543551e-02  2.0179545940195963e-02  2.0179552483520699e-02  2.0179563211910147e-02  2.0179580845695086e-02  2.0179609954836718e-02  2.0179658331229585e-02  2.0179739452602853e-02  2.0179876845285695e-02  2.0180111550072068e-02  2.0180514201894886e-02  2.0181203022837137e-02  2.0182367513492762e-02  2.0184293776973419e-02  2.0187380585979103e-02  2.0192126736810402e-02  2.0199065088605229e-02  2.0208627044168082e-02  2.0220953275833634e-02  2.0235716283835338e-02  2.0252041685797417e-02  2.0268578502315143e-02  2.0283720244273551e-02  2.0295921700545713e-02  2.0303992325674852e-02  2.0307260477894638e-02  2.0305607883870321e-02  2.0299444062834637e-02  2.0289646349556951e-02  2.0277419411718862e-02  2.0264067876438484e-02  2.0250754903339090e-02  2.0238338094863868e-02  2.0227322766680270e-02  2.0217908234202414e-02  2.0210078398969711e-02  2.0203692628578962e-02  2.0198555222208606e-02  2.0194460183460435e-02  2.0191215836835624e-02  2.0188655713127647e-02  2.0186641241994523e-02  2.0185060014131277e-02  2.0183822035240755e-02  2.0182855541897519e-02  2.0182103256318060e-02  2.0181519391963609e-02  2.0181067373891821e-02  2.0180718096826821e-02  2.0180448542918897e-02  2.0180240640012465e-02  2.0180080298356242e-02  2.0179956597756499e-02  2.0179861111202225e-02  2.0179787353128292e-02  2.0179730338225645e-02  2.0179686234662216e-02  2.0179652095144687e-02  2.0179625650302832e-02  2.0179605150871888e-02  2.0179589247471815e-02  2.0179576899021848e-02  2.0179567302782909e-02  2.0179559840628025e-02  2.0179554037434051e-02  2.0179549528524278e-02  2.0179546033937523e-02  2.0179543337991650e-02  2.0179541273147798e-02  2.0179539707544228e-02  2.0179538535737576e-02  2.0179537672187827e-02  2.0179537046931460e-02  2.0179536602805980e-02  2.0179536293607105e-02  2.0179536082685821e-02  2.0179535941675254e-02  2.0179535849218933e-02  2.0179535789698038e-02  2.0179535752016246e-02  2.0179535728508925e-02  2.0179535714022069e-02  2.0179535705176818e-02  2.0179535699809858e-02  2.0179535696566601e-02  2.0179535694615714e-02  2.0179535693455573e-02  2.0179535692789383e-02  2.0179535692449471e-02  3.3640572877803629e-02  3.3640572914067669e-02  2.0179535744100342e-02  2.0179535773693320e-02  2.0179535831203389e-02  2.0179535932127807e-02  2.0179536102640571e-02  2.0179536386837588e-02  2.0179536859595396e-02  2.0179537648505164e-02  2.0179538970648194e-02  2.0179541193389560e-02  2.0179544933565708e-02  2.0179551217873275e-02  2.0179561742097611e-02  2.0179579295150196e-02  2.0179608470977637e-02  2.0179656907633143e-02  2.0179737522331778e-02  2.0179872636428488e-02  2.0180101597668088e-02  2.0180494535611181e-02  2.0181176001478240e-02  2.0182362621038456e-02  2.0184416697013385e-02  2.0187910016842902e-02  2.0193676090088090e-02  2.0202805411080837e-02  2.0216517875264187e-02  2.0235856741703549e-02  2.0261227592739166e-02  2.0291957040686343e-02  2.0326107378840875e-02  2.0360652129856192e-02  2.0392013409070563e-02  2.0416837646288048e-02  2.0432675181601117e-02  2.0438271235605994e-02  2.0433534825206340e-02  2.0419454475130848e-02  2.0398019673308048e-02  2.0371927792888826e-02  2.0344036918004793e-02  2.0316790330471787e-02  2.0291868490247920e-02  2.0270147795481950e-02  2.0251863190575994e-02  2.0236842437774009e-02  2.0224708381429903e-02  2.0215015279300991e-02  2.0207327471243909e-02  2.0201257159703979e-02  2.0196477305617726e-02  2.0192721301114706e-02  2.0189776047967699e-02  2.0187472470614757e-02  2.0185676229176133e-02  2.0184280080410059e-02  2.0183198153267766e-02  2.0182361775611574e-02  2.0181716325939094e-02  2.0181218696656449e-02  2.0180835148232493e-02  2.0180539467921834e-02  2.0180311405995528e-02  2.0180135377242052e-02  2.0179999409287438e-02  2.0179894309091034e-02  2.0179813013504175e-02  2.0179750089396625e-02  2.0179701351839198e-02  2.0179663573616662e-02  2.0179634264465510e-02  2.0179611503056756e-02  2.0179593808615261e-02  2.0179580042157787e-02  2.0179569329759173e-02  2.0179561002192033e-02  2.0179554546887597e-02  2.0179549569506825e-02  2.0179545763471061e-02  2.0179542886494081e-02  2.0179540743416061e-02  2.0179539174506999e-02  2.0179538048085015e-02  2.0179537256056777e-02  2.0179536711034798e-02  2.0179536344014523e-02  2.0179536102044877e-02  2.0179535945733258e-02  2.0179535846678805e-02  2.0179535785019805e-02  2.0179535747260981e-02  2.0179535724475388e-02  2.0179535710901891e-02  2.0179535702904972e-02  2.0179535698237480e-02  2.0179535695537300e-02  2.0179535693995283e-02  2.0179535693143909e-02  2.0179535692724959e-02  3.3640572877951976e-02  3.3640572937308953e-02  2.0179535776439803e-02  2.0179535822474826e-02  2.0179535909557397e-02  2.0179536060596814e-02  2.0179536316302187e-02  2.0179536748402664e-02  2.0179537483937741e-02  2.0179538747594362e-02  2.0179540933534319e-02  2.0179544724804675e-02  2.0179551288079002e-02  2.0179562585992211e-02  2.0179581873115717e-02  2.0179614485846844e-02  2.0179669128451493e-02  2.0179760058537586e-02  2.0179911009081737e-02  2.0180162568166619e-02  2.0180586382345919e-02  2.0181312235705306e-02  2.0182577618365453e-02  2.0184812303702799e-02  2.0188768380009672e-02  2.0195690883543574e-02  2.0207485060753483e-02  2.0226768755454941e-02  2.0256622486396092e-02  2.0299840833697180e-02  2.0357686744161971e-02  2.0428666245544257e-02  2.0508052777983617e-02  2.0588356862843209e-02  2.0660741666534681e-02  2.0717136838429191e-02  2.0752002508258944e-02  2.0762812598076667e-02  2.0749649804500909e-02  2.0714956800385258e-02  2.0663588539718392e-02  2.0602178395073358e-02  2.0537666760643059e-02  2.0475761523833673e-02  2.0420113977024791e-02  2.0372372103634004e-02  2.0332708707027140e-02  2.0300460997596990e-02  2.0274612384249633e-02  2.0254078038802879e-02  2.0237853002053455e-02  2.0225072238228860e-02  2.0215022425048624e-02  2.0207131540278336e-02  2.0200947797631583e-02  2.0196115083879664e-02  2.0192350792988287e-02  2.0189428853434353e-02  2.0187167751562304e-02  2.0185422128592596e-02  2.0184076450352202e-02  2.0183039757433310e-02  2.0182241093831585e-02  2.0181625524021540e-02  2.0181150738538059e-02  2.0180784248401092e-02  2.0180501132405809e-02  2.0180282268082300e-02  2.0180112964695959e-02  2.0179981918184792e-02  2.0179880416758389e-02  2.0179801738358115e-02  2.0179740693515826e-02  2.0179693277627104e-02  2.0179656405143295e-02  2.0179627704786159e-02  2.0179605359956877e-02  2.0179587982548576e-02  2.0179574511780762e-02  2.0179564132626435e-02  2.0179556210794345e-02  2.0179550242766960e-02  2.0179545819830821e-02  2.0179542604445804e-02  2.0179540316238122e-02  2.0179538724182093e-02  2.0179537641688602e-02  2.0179536922254920e-02  2.0179536454547654e-02  2.0179536156796792e-02  2.0179535970929051e-02  2.0179535856995261e-02  2.0179535788314978e-02  2.0179535747544070e-02  2.0179535723679195e-02  2.0179535709890305e-02  2.0179535702020711e-02  2.0179535697587386e-02  2.0179535695136544e-02  2.0179535693840310e-02  2.0179535693241640e-02  3.3640572878239544e-02  3.3640572976379610e-02  2.0179535830435885e-02  2.0179535901372309e-02  2.0179536033937490e-02  2.0179536264884720e-02  2.0179536663160306e-02  2.0179537355192022e-02  2.0179538572043257e-02  2.0179540732991028e-02  2.0179544589464894e-02  2.0179551467066646e-02  2.0179563662744024e-02  2.0179585081061692e-02  2.0179622232698424e-02  2.0179685784605522e-02  2.0179792988289889e-02  2.0179971634625822e-02  2.0180266953687485e-02  2.0180754625181437e-02  2.0181566684434823e-02  2.0182943747570140e-02  2.0185337232472057e-02  2.0189596888905779e-02  2.0197282543127301e-02  2.0211112584178258e-02  2.0235470689389041e-02  2.0276706253791122e-02  2.0342703322522991e-02  2.0441042931559121e-02  2.0575515538045968e-02  2.0742605166786346e-02  2.0930377530351728e-02  2.1119852195726617e-02  2.1288820248307857e-02  2.1417806218666607e-02  2.1494713488019679e-02  2.1515087324648959e-02  2.1479865789971866e-02  2.1394680116433064e-02  2.1271076623103857e-02  2.1125343058174779e-02  2.0974496852035333e-02  2.0832055002384400e-02  2.0706015562382975e-02  2.0599391038677455e-02  2.0511794120392439e-02  2.0441163778122110e-02  2.0384883140735471e-02  2.0340350596252270e-02  2.0305250928808756e-02  2.0277640967887003e-02  2.0255944188196290e-02  2.0238912387813886e-02  2.0225569164536859e-02  2.0215147890727099e-02  2.0207039136789222e-02  2.0200753297310255e-02  2.0195895782250776e-02  2.0192150174582216e-02  2.0189265320345165e-02  2.0187044090620103e-02  2.0185333271530343e-02  2.0184014657725995e-02  2.0182997466674180e-02  2.0182212118620382e-02  2.0181605295437745e-02  2.0181136097100115e-02  2.0180773094776391e-02  2.0180492091443583e-02  2.0180274425972498e-02  2.0180105689397966e-02  2.0179974751896007e-02  2.0179873022688619e-02  2.0179793883929761e-02  2.0179732253919898e-02  2.0179684245704391e-02  2.0179646895677774e-02  2.0179617944267432e-02  2.0179595657506731e-02  2.0179578683955476e-02  2.0179565945031397e-02  2.0179556557522689e-02  2.0179549784940784e-02  2.0179545011020785e-02  2.0179541726554038e-02  2.0179539521308795e-02  2.0179538075558046e-02  2.0179537149063776e-02  2.0179536567870106e-02  2.0179536210412321e-02  2.0179535994499894e-02  2.0179535866212284e-02  2.0179535791120147e-02  2.0179535747763180e-02  2.0179535723046833e-02  2.0179535709131613e-02  2.0179535701406355e-02  2.0179535697209709e-02  2.0179535695044902e-02  2.0179535694089520e-02  3.3640572878699815e-02  3.3640573038306788e-02  2.0179535914995637e-02  2.0179536021325953e-02  2.0179536221921243e-02  2.0179536578700589e-02  2.0179537212506062e-02  2.0179538351887238e-02  2.0179540424827603e-02  2.0179544223893717e-02  2.0179551195578765e-02  2.0179563934411292e-02  2.0179587003732534e-02  2.0179628258964612e-02  2.0179700917122300e-02  2.0179826709479185e-02  2.0180040626279247e-02  2.0180398196005759e-02  2.0180987441003259e-02  2.0181950790939585e-02  2.0183529634358644e-02  2.0186159544138355e-02  2.0190671442777527e-02  2.0198692204214455e-02  2.0213369582127806e-02  2.0240516645488857e-02  2.0290075837655523e-02  2.0377315460339405e-02  2.0522325230945573e-02  2.0745535337134205e-02  2.1057509088083202e-02  2.1448519797503302e-02  2.1887040164880463e-02  2.2324888343863973e-02  2.2707655937770299e-02  2.2990789949840204e-02  2.3151071170586214e-02  2.3184389383015851e-02  2.3095432864108943e-02  2.2895362714782184e-02  2.2609210034174272e-02  2.2274432608942202e-02  2.1930839413168833e-02  2.1609732696770287e-02  2.1328640036674069e-02  2.1093162306556036e-02  2.0901100046408248e-02  2.0746997877033782e-02  2.0624606526269889e-02  2.0527949275639532e-02  2.0451838178922911e-02  2.0391984810068646e-02  2.0344939261952192e-02  2.0307994763212364e-02  2.0279050021575016e-02  2.0256456268399455e-02  2.0238895482442391e-02  2.0225301489618881e-02  2.0214810889529377e-02  2.0206730597368720e-02  2.0200511739761381e-02  2.0195725153092408e-02  2.0192038623196813e-02  2.0189196753535091e-02  2.0187003896477210e-02  2.0185310316704771e-02  2.0184001340452458e-02  2.0182988993788727e-02  2.0182205637633260e-02  2.0181599156890877e-02  2.0181129326482784e-02  2.0180765063413885e-02  2.0180482344748406e-02  2.0180262623354671e-02  2.0180091615008455e-02  2.0179958361241899e-02  2.0179854494627721e-02  2.0179773651285916e-02  2.0179710991784758e-02  2.0179662807256183e-02  2.0179626201252250e-02  2.0179598846637895e-02  2.0179578817811138e-02  2.0179564491579958e-02  2.0179554499626707e-02  2.0179547709368636e-02  2.0179543212255891e-02  2.0179540306839293e-02  2.0179538473064720e-02  2.0179537340370108e-02  2.0179536654353951e-02  2.0179536246185074e-02  2.0179536007171900e-02  2.0179535869196425e-02  2.0179535790565094e-02  2.0179535746279786e-02  2.0179535721622763e-02  2.0179535708072179e-02  2.0179535700779634e-02  2.0179535697052040e-02  2.0179535695428769e-02  3.3640572879392205e-02  3.3640573131914993e-02  2.0179536041793289e-02  2.0179536197076478e-02  2.0179536498973121e-02  2.0179537054110235e-02  2.0179538075748418e-02  2.0179539977127674e-02  2.0179543548298852e-02  2.0179550279905804e-02  2.0179562941477599e-02  2.0179586587934659e-02  2.0179630260911810e-02  2.0179709769937493e-02  2.0179852071011205e-02  2.0180101889374934e-02  2.0180531378861298e-02  2.0181253982933342e-02  2.0182445078989055e-02  2.0184376776427357e-02  2.0187487824542882e-02  2.0192542345413105e-02  2.0200998109733435e-02  2.0215816933028402e-02  2.0243081857594474e-02  2.0294814712256019e-02  2.0393017917909866e-02  2.0573749964346875e-02  2.0887360163429174e-02  2.1387188124356801e-02  2.2097509493490857e-02  2.2986044066305097e-02  2.3981687550031480e-02  2.4985646904733830e-02  2.5855554879949134e-02  2.6469765543972013e-02  2.6799685287435308e-02  2.6862310177827288e-02  2.6660277686866726e-02  2.6189097584215323e-02  2.5502276702518537e-02  2.4717902784511012e-02  2.3946019559575035e-02  2.3247062256618458e-02  2.2644582761358306e-02  2.2142575289806146e-02  2.1732831869511835e-02  2.1403175605837821e-02  2.1140644786138321e-02  2.0932767361235078e-02  2.0768698402958842e-02  2.0639419407032056e-02  2.0537610640182641e-02  2.0457536279129933e-02  2.0394757056787748e-02  2.0345767809919126e-02  2.0307731299915706e-02  2.0278327589056545e-02  2.0255665973478880e-02  2.0238227438882390e-02  2.0224813024621209e-02  2.0214489397686233e-02  2.0206537052010830e-02  2.0200404732178569e-02  2.0195671029440684e-02  2.0192013708979668e-02  2.0189186014234230e-02  2.0186998548035504e-02  2.0185305566473064e-02  2.0183994669394131e-02  2.0182979020434554e-02  2.0182191463866076e-02  2.0181580067347594e-02  2.0181104727313586e-02  2.0180734567313091e-02  2.0180445925282370e-02  2.0180220770766120e-02  2.0180045431017084e-02  2.0179909540992511e-02  2.0179805169155858e-02  2.0179726105108316e-02  2.0179667317184808e-02  2.0179624589160585e-02  2.0179594323178555e-02  2.0179573463859860e-02  2.0179559481204676e-02  2.0179550358627063e-02  2.0179544557611829e-02  2.0179540955370591e-02  2.0179538766347791e-02  2.0179537461711274e-02  2.0179536697492940e-02  2.0179536256633965e-02  2.0179536005725075e-02  2.0179535864621748e-02  2.0179535786119186e-02  2.0179535742888065e-02  2.0179535719350158e-02  2.0179535706767233e-02  2.0179535700344736e-02  2.0179535697525418e-02  3.3640572880418766e-02  3.3640573267261387e-02  2.0179536225428164e-02  2.0179536448541622e-02  2.0179536902157364e-02  2.0179537770361959e-02  2.0179539427035868e-02  2.0179542611447276e-02  2.0179548764121886e-02  2.0179560653404257e-02  2.0179583518454162e-02  2.0179627102756049e-02  2.0179709167636433e-02  2.0179861355841995e-02  2.0180138579665979e-02  2.0180633329173241e-02  2.0181496276286615e-02  2.0182964286727830e-02  2.0185397354187510e-02  2.0189330910158908e-02  2.0195570682646165e-02  2.0205419684372068e-02  2.0221278175768714e-02  2.0248155889825870e-02  2.0297082114755054e-02  2.0391742649305124e-02  2.0579086939429312e-02  2.0941652165097642e-02  2.1600427696835553e-02  2.2683940578983545e-02  2.4255725888358681e-02  2.6257415362112520e-02  2.7703884389574190e-02  2.6921227703898043e-02  2.5357920972858970e-02  2.5115837677565572e-02  2.5382373233329935e-02  2.5530664914280327e-02  2.5496126696621720e-02  2.5619747699196730e-02  2.6654333363516622e-02  2.7914347784711094e-02  2.7802314452923242e-02  2.6678518667262022e-02  2.5382760002855179e-02  2.4296347018757124e-02  2.3442598504305974e-02  2.2765976610587428e-02  2.2224820107882175e-02  2.1791410815747769e-02  2.1445480794149131e-02  2.1170456593673212e-02  2.0952323919226721e-02  2.0779864921455546e-02  2.0644263207243697e-02  2.0538353561580597e-02  2.0456153847637982e-02  2.0392670973448143e-02  2.0343788896909444e-02  2.0306193042567991e-02  2.0277276469626897e-02  2.0255017965330979e-02  2.0237864742800069e-02  2.0224630472452113e-02  2.0214409369324532e-02  2.0206508823008607e-02  2.0200398208621802e-02  2.0195669857151745e-02  2.0192009681215171e-02  2.0189175181691933e-02  2.0186978821092407e-02  2.0185275437287386e-02  2.0183952708938909e-02  2.0182923882187589e-02  2.0182122189504749e-02  2.0181496528318802e-02  2.0181008052440014e-02  2.0180627408592403e-02  2.0180332429659713e-02  2.0180106184450611e-02  2.0179935370885044e-02  2.0179809097331958e-02  2.0179718097067353e-02  2.0179654352749047e-02  2.0179611007710093e-02  2.0179582392498830e-02  2.0179564028903529e-02  2.0179552550436273e-02  2.0179545545398768e-02  2.0179541361007202e-02  2.0179538908410503e-02  2.0179537494566531e-02  2.0179536691274050e-02  2.0179536240612264e-02  2.0179535990563744e-02  2.0179535853175980e-02  2.0179535778368948e-02  2.0179535738031551e-02  2.0179535716612199e-02  2.0179535705678712e-02  2.0179535700806876e-02  3.3640572881958541e-02  3.3640573454845696e-02  2.0179536483431338e-02  2.0179536802452706e-02  2.0179537484895468e-02  2.0179538845372672e-02  2.0179541530342623e-02  2.0179546841212745e-02  2.0179557360442694e-02  2.0179578143454148e-02  2.0179618942819399e-02  2.0179698262305399e-02  2.0179850542170676e-02  2.0180138468939849e-02  2.0180673197210567e-02  2.0181645854855615e-02  2.0183373390534751e-02  2.0186359619343907e-02  2.0191367948896918e-02  2.0199500035876106e-02  2.0212293949836958e-02  2.0231953142876728e-02  2.02621217097