<?xml version="1.0"?>
<VTKFile type="UnstructuredGrid"  version="0.1"  >
<UnstructuredGrid>
<Piece  NumberOfPoints="5151" NumberOfCells="10000">
<Points>
<DataArray  type="Float64"  NumberOfComponents="3"  format="ascii">0 0 0  0.02 0 0  0.04 0 0  0.06 0 0  0.08 0 0  0.1 0 0  0.12 0 0  0.14 0 0  0.16 0 0  0.18 0 0  0.2 0 0  0.22 0 0  0.24 0 0  0.26 0 0  0.28 0 0  0.3 0 0  0.32 0 0  0.34 0 0  0.36 0 0  0.38 0 0  0.4 0 0  0.42 0 0  0.44 0 0  0.46 0 0  0.48 0 0  0.5 0 0  0.52 0 0  0.54 0 0  0.5600000000000001 0 0  0.58 0 0  0.6 0 0  0.62 0 0  0.64 0 0  0.66 0 0  0.68 0 0  0.7 0 0  0.72 0 0  0.74 0 0  0.76 0 0  0.78 0 0  0.8 0 0  0.82 0 0  0.84 0 0  0.86 0 0  0.88 0 0  0.9 0 0  0.92 0 0  0.9399999999999999 0 0  0.96 0 0  0.98 0 0  1 0 0  1.02 0 0  1.04 0 0  1.06 0 0  1.08 0 0  1.1 0 0  1.12 0 0  1.14 0 0  1.16 0 0  1.18 0 0  1.2 0 0  1.22 0 0  1.24 0 0  1.26 0 0  1.28 0 0  1.3 0 0  1.32 0 0  1.34 0 0  1.36 0 0  1.38 0 0  1.4 0 0  1.42 0 0  1.44 0 0  1.46 0 0  1.48 0 0  1.5 0 0  1.52 0 0  1.54 0 0  1.56 0 0  1.58 0 0  1.6 0 0  1.62 0 0  1.64 0 0  1.66 0 0  1.68 0 0  1.7 0 0  1.72 0 0  1.74 0 0  1.76 0 0  1.78 0 0  1.8 0 0  1.82 0 0  1.84 0 0  1.86 0 0  1.88 0 0  1.9 0 0  1.92 0 0  1.94 0 0  1.96 0 0  1.98 0 0  2 0 0  0 0.02 0  0.02 0.02 0  0.04 0.02 0  0.06 0.02 0  0.08 0.02 0  0.1 0.02 0  0.12 0.02 0  0.14 0.02 0  0.16 0.02 0  0.18 0.02 0  0.2 0.02 0  0.22 0.02 0  0.24 0.02 0  0.26 0.02 0  0.28 0.02 0  0.3 0.02 0  0.32 0.02 0  0.34 0.02 0  0.36 0.02 0  0.38 0.02 0  0.4 0.02 0  0.42 0.02 0  0.44 0.02 0  0.46 0.02 0  0.48 0.02 0  0.5 0.02 0  0.52 0.02 0  0.54 0.02 0  0.5600000000000001 0.02 0  0.58 0.02 0  0.6 0.02 0  0.62 0.02 0  0.64 0.02 0  0.66 0.02 0  0.68 0.02 0  0.7 0.02 0  0.72 0.02 0  0.74 0.02 0  0.76 0.02 0  0.78 0.02 0  0.8 0.02 0  0.82 0.02 0  0.84 0.02 0  0.86 0.02 0  0.88 0.02 0  0.9 0.02 0  0.92 0.02 0  0.9399999999999999 0.02 0  0.96 0.02 0  0.98 0.02 0  1 0.02 0  1.02 0.02 0  1.04 0.02 0  1.06 0.02 0  1.08 0.02 0  1.1 0.02 0  1.12 0.02 0  1.14 0.02 0  1.16 0.02 0  1.18 0.02 0  1.2 0.02 0  1.22 0.02 0  1.24 0.02 0  1.26 0.02 0  1.28 0.02 0  1.3 0.02 0  1.32 0.02 0  1.34 0.02 0  1.36 0.02 0  1.38 0.02 0  1.4 0.02 0  1.42 0.02 0  1.44 0.02 0  1.46 0.02 0  1.48 0.02 0  1.5 0.02 0  1.52 0.02 0  1.54 0.02 0  1.56 0.02 0  1.58 0.02 0  1.6 0.02 0  1.62 0.02 0  1.64 0.02 0  1.66 0.02 0  1.68 0.02 0  1.7 0.02 0  1.72 0.02 0  1.74 0.02 0  1.76 0.02 0  1.78 0.02 0  1.8 0.02 0  1.82 0.02 0  1.84 0.02 0  1.86 0.02 0  1.88 0.02 0  1.9 0.02 0  1.92 0.02 0  1.94 0.02 0  1.96 0.02 0  1.98 0.02 0  2 0.02 0  0 0.04 0  0.02 0.04 0  0.04 0.04 0  0.06 0.04 0  0.08 0.04 0  0.1 0.04 0  0.12 0.04 0  0.14 0.04 0  0.16 0.04 0  0.18 0.04 0  0.2 0.04 0  0.22 0.04 0  0.24 0.04 0  0.26 0.04 0  0.28 0.04 0  0.3 0.04 0  0.32 0.04 0  0.34 0.04 0  0.36 0.04 0  0.38 0.04 0  0.4 0.04 0  0.42 0.04 0  0.44 0.04 0  0.46 0.04 0  0.48 0.04 0  0.5 0.04 0  0.52 0.04 0  0.54 0.04 0  0.5600000000000001 0.04 0  0.58 0.04 0  0.6 0.04 0  0.62 0.04 0  0.64 0.04 0  0.66 0.04 0  0.68 0.04 0  0.7 0.04 0  0.72 0.04 0  0.74 0.04 0  0.76 0.04 0  0.78 0.04 0  0.8 0.04 0  0.82 0.04 0  0.84 0.04 0  0.86 0.04 0  0.88 0.04 0  0.9 0.04 0  0.92 0.04 0  0.9399999999999999 0.04 0  0.96 0.04 0  0.98 0.04 0  1 0.04 0  1.02 0.04 0  1.04 0.04 0  1.06 0.04 0  1.08 0.04 0  1.1 0.04 0  1.12 0.04 0  1.14 0.04 0  1.16 0.04 0  1.18 0.04 0  1.2 0.04 0  1.22 0.04 0  1.24 0.04 0  1.26 0.04 0  1.28 0.04 0  1.3 0.04 0  1.32 0.04 0  1.34 0.04 0  1.36 0.04 0  1.38 0.04 0  1.4 0.04 0  1.42 0.04 0  1.44 0.04 0  1.46 0.04 0  1.48 0.04 0  1.5 0.04 0  1.52 0.04 0  1.54 0.04 0  1.56 0.04 0  1.58 0.04 0  1.6 0.04 0  1.62 0.04 0  1.64 0.04 0  1.66 0.04 0  1.68 0.04 0  1.7 0.04 0  1.72 0.04 0  1.74 0.04 0  1.76 0.04 0  1.78 0.04 0  1.8 0.04 0  1.82 0.04 0  1.84 0.04 0  1.86 0.04 0  1.88 0.04 0  1.9 0.04 0  1.92 0.04 0  1.94 0.04 0  1.96 0.04 0  1.98 0.04 0  2 0.04 0  0 0.06 0  0.02 0.06 0  0.04 0.06 0  0.06 0.06 0  0.08 0.06 0  0.1 0.06 0  0.12 0.06 0  0.14 0.06 0  0.16 0.06 0  0.18 0.06 0  0.2 0.06 0  0.22 0.06 0  0.24 0.06 0  0.26 0.06 0  0.28 0.06 0  0.3 0.06 0  0.32 0.06 0  0.34 0.06 0  0.36 0.06 0  0.38 0.06 0  0.4 0.06 0  0.42 0.06 0  0.44 0.06 0  0.46 0.06 0  0.48 0.06 0  0.5 0.06 0  0.52 0.06 0  0.54 0.06 0  0.5600000000000001 0.06 0  0.58 0.06 0  0.6 0.06 0  0.62 0.06 0  0.64 0.06 0  0.66 0.06 0  0.68 0.06 0  0.7 0.06 0  0.72 0.06 0  0.74 0.06 0  0.76 0.06 0  0.78 0.06 0  0.8 0.06 0  0.82 0.06 0  0.84 0.06 0  0.86 0.06 0  0.88 0.06 0  0.9 0.06 0  0.92 0.06 0  0.9399999999999999 0.06 0  0.96 0.06 0  0.98 0.06 0  1 0.06 0  1.02 0.06 0  1.04 0.06 0  1.06 0.06 0  1.08 0.06 0  1.1 0.06 0  1.12 0.06 0  1.14 0.06 0  1.16 0.06 0  1.18 0.06 0  1.2 0.06 0  1.22 0.06 0  1.24 0.06 0  1.26 0.06 0  1.28 0.06 0  1.3 0.06 0  1.32 0.06 0  1.34 0.06 0  1.36 0.06 0  1.38 0.06 0  1.4 0.06 0  1.42 0.06 0  1.44 0.06 0  1.46 0.06 0  1.48 0.06 0  1.5 0.06 0  1.52 0.06 0  1.54 0.06 0  1.56 0.06 0  1.58 0.06 0  1.6 0.06 0  1.62 0.06 0  1.64 0.06 0  1.66 0.06 0  1.68 0.06 0  1.7 0.06 0  1.72 0.06 0  1.74 0.06 0  1.76 0.06 0  1.78 0.06 0  1.8 0.06 0  1.82 0.06 0  1.84 0.06 0  1.86 0.06 0  1.88 0.06 0  1.9 0.06 0  1.92 0.06 0  1.94 0.06 0  1.96 0.06 0  1.98 0.06 0  2 0.06 0  0 0.08 0  0.02 0.08 0  0.04 0.08 0  0.06 0.08 0  0.08 0.08 0  0.1 0.08 0  0.12 0.08 0  0.14 0.08 0  0.16 0.08 0  0.18 0.08 0  0.2 0.08 0  0.22 0.08 0  0.24 0.08 0  0.26 0.08 0  0.28 0.08 0  0.3 0.08 0  0.32 0.08 0  0.34 0.08 0  0.36 0.08 0  0.38 0.08 0  0.4 0.08 0  0.42 0.08 0  0.44 0.08 0  0.46 0.08 0  0.48 0.08 0  0.5 0.08 0  0.52 0.08 0  0.54 0.08 0  0.5600000000000001 0.08 0  0.58 0.08 0  0.6 0.08 0  0.62 0.08 0  0.64 0.08 0  0.66 0.08 0  0.68 0.08 0  0.7 0.08 0  0.72 0.08 0  0.74 0.08 0  0.76 0.08 0  0.78 0.08 0  0.8 0.08 0  0.82 0.08 0  0.84 0.08 0  0.86 0.08 0  0.88 0.08 0  0.9 0.08 0  0.92 0.08 0  0.9399999999999999 0.08 0  0.96 0.08 0  0.98 0.08 0  1 0.08 0  1.02 0.08 0  1.04 0.08 0  1.06 0.08 0  1.08 0.08 0  1.1 0.08 0  1.12 0.08 0  1.14 0.08 0  1.16 0.08 0  1.18 0.08 0  1.2 0.08 0  1.22 0.08 0  1.24 0.08 0  1.26 0.08 0  1.28 0.08 0  1.3 0.08 0  1.32 0.08 0  1.34 0.08 0  1.36 0.08 0  1.38 0.08 0  1.4 0.08 0  1.42 0.08 0  1.44 0.08 0  1.46 0.08 0  1.48 0.08 0  1.5 0.08 0  1.52 0.08 0  1.54 0.08 0  1.56 0.08 0  1.58 0.08 0  1.6 0.08 0  1.62 0.08 0  1.64 0.08 0  1.66 0.08 0  1.68 0.08 0  1.7 0.08 0  1.72 0.08 0  1.74 0.08 0  1.76 0.08 0  1.78 0.08 0  1.8 0.08 0  1.82 0.08 0  1.84 0.08 0  1.86 0.08 0  1.88 0.08 0  1.9 0.08 0  1.92 0.08 0  1.94 0.08 0  1.96 0.08 0  1.98 0.08 0  2 0.08 0  0 0.1 0  0.02 0.1 0  0.04 0.1 0  0.06 0.1 0  0.08 0.1 0  0.1 0.1 0  0.12 0.1 0  0.14 0.1 0  0.16 0.1 0  0.18 0.1 0  0.2 0.1 0  0.22 0.1 0  0.24 0.1 0  0.26 0.1 0  0.28 0.1 0  0.3 0.1 0  0.32 0.1 0  0.34 0.1 0  0.36 0.1 0  0.38 0.1 0  0.4 0.1 0  0.42 0.1 0  0.44 0.1 0  0.46 0.1 0  0.48 0.1 0  0.5 0.1 0  0.52 0.1 0  0.54 0.1 0  0.5600000000000001 0.1 0  0.58 0.1 0  0.6 0.1 0  0.62 0.1 0  0.64 0.1 0  0.66 0.1 0  0.68 0.1 0  0.7 0.1 0  0.72 0.1 0  0.74 0.1 0  0.76 0.1 0  0.78 0.1 0  0.8 0.1 0  0.82 0.1 0  0.84 0.1 0  0.86 0.1 0  0.88 0.1 0  0.9 0.1 0  0.92 0.1 0  0.9399999999999999 0.1 0  0.96 0.1 0  0.98 0.1 0  1 0.1 0  1.02 0.1 0  1.04 0.1 0  1.06 0.1 0  1.08 0.1 0  1.1 0.1 0  1.12 0.1 0  1.14 0.1 0  1.16 0.1 0  1.18 0.1 0  1.2 0.1 0  1.22 0.1 0  1.24 0.1 0  1.26 0.1 0  1.28 0.1 0  1.3 0.1 0  1.32 0.1 0  1.34 0.1 0  1.36 0.1 0  1.38 0.1 0  1.4 0.1 0  1.42 0.1 0  1.44 0.1 0  1.46 0.1 0  1.48 0.1 0  1.5 0.1 0  1.52 0.1 0  1.54 0.1 0  1.56 0.1 0  1.58 0.1 0  1.6 0.1 0  1.62 0.1 0  1.64 0.1 0  1.66 0.1 0  1.68 0.1 0  1.7 0.1 0  1.72 0.1 0  1.74 0.1 0  1.76 0.1 0  1.78 0.1 0  1.8 0.1 0  1.82 0.1 0  1.84 0.1 0  1.86 0.1 0  1.88 0.1 0  1.9 0.1 0  1.92 0.1 0  1.94 0.1 0  1.96 0.1 0  1.98 0.1 0  2 0.1 0  0 0.12 0  0.02 0.12 0  0.04 0.12 0  0.06 0.12 0  0.08 0.12 0  0.1 0.12 0  0.12 0.12 0  0.14 0.12 0  0.16 0.12 0  0.18 0.12 0  0.2 0.12 0  0.22 0.12 0  0.24 0.12 0  0.26 0.12 0  0.28 0.12 0  0.3 0.12 0  0.32 0.12 0  0.34 0.12 0  0.36 0.12 0  0.38 0.12 0  0.4 0.12 0  0.42 0.12 0  0.44 0.12 0  0.46 0.12 0  0.48 0.12 0  0.5 0.12 0  0.52 0.12 0  0.54 0.12 0  0.5600000000000001 0.12 0  0.58 0.12 0  0.6 0.12 0  0.62 0.12 0  0.64 0.12 0  0.66 0.12 0  0.68 0.12 0  0.7 0.12 0  0.72 0.12 0  0.74 0.12 0  0.76 0.12 0  0.78 0.12 0  0.8 0.12 0  0.82 0.12 0  0.84 0.12 0  0.86 0.12 0  0.88 0.12 0  0.9 0.12 0  0.92 0.12 0  0.9399999999999999 0.12 0  0.96 0.12 0  0.98 0.12 0  1 0.12 0  1.02 0.12 0  1.04 0.12 0  1.06 0.12 0  1.08 0.12 0  1.1 0.12 0  1.12 0.12 0  1.14 0.12 0  1.16 0.12 0  1.18 0.12 0  1.2 0.12 0  1.22 0.12 0  1.24 0.12 0  1.26 0.12 0  1.28 0.12 0  1.3 0.12 0  1.32 0.12 0  1.34 0.12 0  1.36 0.12 0  1.38 0.12 0  1.4 0.12 0  1.42 0.12 0  1.44 0.12 0  1.46 0.12 0  1.48 0.12 0  1.5 0.12 0  1.52 0.12 0  1.54 0.12 0  1.56 0.12 0  1.58 0.12 0  1.6 0.12 0  1.62 0.12 0  1.64 0.12 0  1.66 0.12 0  1.68 0.12 0  1.7 0.12 0  1.72 0.12 0  1.74 0.12 0  1.76 0.12 0  1.78 0.12 0  1.8 0.12 0  1.82 0.12 0  1.84 0.12 0  1.86 0.12 0  1.88 0.12 0  1.9 0.12 0  1.92 0.12 0  1.94 0.12 0  1.96 0.12 0  1.98 0.12 0  2 0.12 0  0 0.14 0  0.02 0.14 0  0.04 0.14 0  0.06 0.14 0  0.08 0.14 0  0.1 0.14 0  0.12 0.14 0  0.14 0.14 0  0.16 0.14 0  0.18 0.14 0  0.2 0.14 0  0.22 0.14 0  0.24 0.14 0  0.26 0.14 0  0.28 0.14 0  0.3 0.14 0  0.32 0.14 0  0.34 0.14 0  0.36 0.14 0  0.38 0.14 0  0.4 0.14 0  0.42 0.14 0  0.44 0.14 0  0.46 0.14 0  0.48 0.14 0  0.5 0.14 0  0.52 0.14 0  0.54 0.14 0  0.5600000000000001 0.14 0  0.58 0.14 0  0.6 0.14 0  0.62 0.14 0  0.64 0.14 0  0.66 0.14 0  0.68 0.14 0  0.7 0.14 0  0.72 0.14 0  0.74 0.14 0  0.76 0.14 0  0.78 0.14 0  0.8 0.14 0  0.82 0.14 0  0.84 0.14 0  0.86 0.14 0  0.88 0.14 0  0.9 0.14 0  0.92 0.14 0  0.9399999999999999 0.14 0  0.96 0.14 0  0.98 0.14 0  1 0.14 0  1.02 0.14 0  1.04 0.14 0  1.06 0.14 0  1.08 0.14 0  1.1 0.14 0  1.12 0.14 0  1.14 0.14 0  1.16 0.14 0  1.18 0.14 0  1.2 0.14 0  1.22 0.14 0  1.24 0.14 0  1.26 0.14 0  1.28 0.14 0  1.3 0.14 0  1.32 0.14 0  1.34 0.14 0  1.36 0.14 0  1.38 0.14 0  1.4 0.14 0  1.42 0.14 0  1.44 0.14 0  1.46 0.14 0  1.48 0.14 0  1
[...]
<PointData  Scalars="sols[i]"> 
<DataArray  type="Float64"  Name="sols[i]"  format="ascii">3.1506640804680025e-01  2.6431605718359319e-01  2.6432079275458870e-01  2.6433112727910629e-01  2.6434839430004942e-01  2.6437579365374242e-01  2.6441486452851981e-01  2.6448201761382362e-01  2.6457297774832489e-01  2.6470212280113231e-01  2.6487402889074824e-01  2.6514349589883701e-01  2.6544482103122374e-01  2.6591530955411058e-01  2.6663774117899930e-01  2.6745636135736406e-01  2.6867166193992759e-01  2.6996418837057279e-01  2.7225981181756859e-01  2.7520697505193870e-01  2.7819806472957676e-01  2.8239071437712443e-01  2.8707931629020655e-01  2.9208076156977231e-01  2.9747702887988126e-01  3.0300239614574687e-01  3.0851183941838628e-01  3.1399954378489303e-01  3.1862765705262724e-01  3.2293479819466231e-01  3.2640539922101824e-01  3.2887416032061922e-01  3.2998248236334904e-01  3.3044304443327843e-01  3.3005494537074959e-01  3.2897353068667901e-01  3.2735158657787533e-01  3.2551207356250661e-01  3.2329907640177796e-01  3.2110582602466964e-01  3.1895332626168638e-01  3.1684953594727550e-01  3.1481438967636732e-01  3.1286031652755875e-01  3.1096386808354365e-01  3.0912061056930668e-01  3.0731370643874667e-01  3.0548008861780396e-01  3.0357758370867427e-01  3.0175815405017975e-01  2.9996157335150608e-01  2.9809955743719679e-01  2.9620082453645735e-01  2.9403006972975648e-01  2.9240905389821786e-01  2.9035488725240033e-01  2.8841960347540885e-01  2.8652435176034541e-01  2.8467350679800268e-01  2.8289545326866167e-01  2.8113886122889281e-01  2.7945478070865148e-01  2.7778414595079787e-01  2.7641421808981387e-01  2.7491854653351461e-01  2.7371626104988322e-01  2.7255674881769187e-01  2.7150844494030285e-01  2.7043331841582080e-01  2.6961769137091351e-01  2.6876452749342356e-01  2.6815630502317545e-01  2.6758629177792909e-01  2.6708388284638651e-01  2.6660128696728796e-01  2.6624043113903217e-01  2.6592671253770678e-01  2.6567719569957787e-01  2.6545785340979661e-01  2.6525908260786785e-01  2.6510577652298711e-01  2.6496107828652521e-01  2.6484538655800050e-01  2.6474891671908624e-01  2.6466195626105271e-01  2.6459800969144676e-01  2.6453360492944483e-01  2.6448395139353903e-01  2.6443762650733033e-01  2.6440462468990300e-01  2.6437815090535421e-01  2.6435839054417037e-01  2.6434381066287593e-01  2.6433323337760251e-01  2.6432557095258952e-01  2.6432026101560840e-01  2.6431630145392920e-01  2.6431338185285691e-01  2.6431145048849447e-01  2.6431038884249342e-01  4.0603414187812309e-01  2.6431602255676345e-01  1.8216620631390162e-01  1.8217714797677009e-01  1.8219862942642490e-01  1.8223616823678512e-01  1.8229787045224125e-01  1.8239530065824663e-01  1.8254442088674391e-01  1.8276634374146578e-01  1.8308850958234335e-01  1.8354528370968048e-01  1.8417870315660806e-01  1.8504032532552786e-01  1.8618816038095798e-01  1.8769152649894780e-01  1.8962497301906120e-01  1.9207313338204463e-01  1.9510765211876641e-01  1.9883034279094342e-01  2.0329379145455651e-01  2.0855744834069553e-01  2.1464500027460942e-01  2.2153619748028305e-01  2.2913330104690699e-01  2.3730760804015896e-01  2.4589960669903607e-01  2.5454489648594436e-01  2.6308830020038221e-01  2.7096114344598926e-01  2.7811442338508202e-01  2.8405562774491261e-01  2.8857773717330465e-01  2.9175011362717629e-01  2.9349432557788896e-01  2.9373045090600836e-01  2.9282311114762738e-01  2.9090132411437886e-01  2.8831059730085906e-01  2.8530529456938142e-01  2.8204292656640639e-01  2.7869636769881595e-01  2.7532128971809144e-01  2.7196281797552807e-01  2.6867604013710689e-01  2.6547276455291496e-01  2.6228494738325331e-01  2.5909728365981283e-01  2.5596376463040249e-01  2.5277065788376724e-01  2.4956499228676940e-01  2.4630785700850441e-01  2.4302469583901129e-01  2.3967528677769062e-01  2.3632833205838680e-01  2.3294125391334991e-01  2.2956243368643969e-01  2.2617645009373596e-01  2.2287397556532856e-01  2.1961576487727508e-01  2.1643796397039319e-01  2.1337546908419897e-01  2.1043973769013749e-01  2.0763563325017437e-01  2.0498845001852989e-01  2.0250222996310335e-01  2.0019291031561934e-01  1.9806162952772308e-01  1.9611291737778816e-01  1.9434364749748759e-01  1.9275417968104361e-01  1.9133619747845521e-01  1.9008198529486026e-01  1.8898575514564547e-01  1.8803281952808346e-01  1.8721159642694990e-01  1.8650892158350879e-01  1.8590993622452409e-01  1.8539985764390385e-01  1.8496555164584455e-01  1.8459399342841928e-01  1.8427291904586721e-01  1.8399268524748419e-01  1.8374491147836913e-01  1.8352345670088990e-01  1.8332359675169291e-01  1.8314247261196309e-01  1.8297832533351505e-01  1.8283041583122830e-01  1.8269853573241782e-01  1.8258279875567721e-01  1.8248325671053239e-01  1.8239972909185603e-01  1.8233160731718262e-01  1.8227778981922665e-01  1.8223677376304165e-01  1.8220674644959012e-01  1.8218574078538594e-01  1.8217183322359148e-01  1.8216332638570434e-01  1.8215892261122035e-01  2.6431048984582683e-01  2.6432066897992335e-01  1.8217514767050477e-01  1.8219169223277665e-01  1.8222345691187000e-01  1.8227708842113644e-01  1.8236184968034166e-01  1.8249002985283336e-01  1.8267762419000988e-01  1.8294513464348394e-01  1.8331833776737991e-01  1.8382883442928513e-01  1.8451489886020112e-01  1.8542114087274220e-01  1.8659829509056328e-01  1.8810529470696899e-01  1.9000272311054461e-01  1.9235359259005730e-01  1.9522831768948970e-01  1.9868341378944621e-01  2.0276807291134172e-01  2.0751041505184975e-01  2.1292092545305502e-01  2.1894925075189212e-01  2.2557851841385129e-01  2.3260012388890750e-01  2.3998225913460544e-01  2.4754419731700658e-01  2.5502242304576894e-01  2.6213531421099823e-01  2.6865220415473362e-01  2.7438601675543262e-01  2.7916103367483414e-01  2.8276158761935904e-01  2.8524463359638808e-01  2.8641409004735691e-01  2.8663385122016599e-01  2.8598866930727790e-01  2.8465273361382049e-01  2.8280832847311910e-01  2.8061989655871455e-01  2.7817869509607118e-01  2.7558610896381852e-01  2.7290005843607940e-01  2.7011932318227011e-01  2.6729030648498570e-01  2.6441239008428857e-01  2.6147113136613664e-01  2.5850328241500869e-01  2.5538794911593687e-01  2.5224053388351320e-01  2.4902772023300820e-01  2.4574164255852832e-01  2.4236702028265980e-01  2.3897291700264139e-01  2.3557165862067284e-01  2.3214448421333361e-01  2.2872217312974277e-01  2.2535142258569296e-01  2.2202325145827445e-01  2.1878357191367509e-01  2.1563339433558212e-01  2.1261152955018214e-01  2.0972134422743316e-01  2.0697131421702397e-01  2.0439160938328246e-01  2.0197498606289632e-01  1.9973336293827762e-01  1.9766927847827045e-01  1.9578405974363627e-01  1.9407364435451299e-01  1.9253840380527565e-01  1.9116884867687664e-01  1.8995919045144349e-01  1.8889895349849037e-01  1.8797732725437394e-01  1.8718158262619339e-01  1.8649841765259442e-01  1.8591374655847115e-01  1.8541350035054124e-01  1.8498406217215049e-01  1.8461334542033495e-01  1.8429011458843378e-01  1.8400594833665193e-01  1.8375366631902407e-01  1.8352787205195389e-01  1.8332478022530355e-01  1.8314179599216299e-01  1.8297725789564062e-01  1.8283009380494156e-01  1.8269966083041703e-01  1.8258549264246413e-01  1.8248711072212792e-01  1.8240395989934596e-01  1.8233533770529248e-01  1.8228033769648253e-01  1.8223787216202603e-01  1.8220661496070090e-01  1.8218502745342580e-01  1.8217148200720990e-01  1.8216448485720430e-01  2.6431194301053490e-01  2.6432817923255630e-01  1.8219151010646220e-01  1.8221750133127293e-01  1.8226518602848457e-01  1.8234219312441027e-01  1.8245899562093532e-01  1.8262877439018790e-01  1.8286796259590204e-01  1.8319674722236418e-01  1.8363958358194840e-01  1.8422521243100234e-01  1.8498772418061538e-01  1.8596544129951315e-01  1.8720093008224431e-01  1.8873825541792905e-01  1.9062326082426018e-01  1.9290370157475312e-01  1.9562245931569783e-01  1.9880824259879146e-01  2.0249945993414109e-01  2.0669351900923935e-01  2.1137524488397946e-01  2.1652045134301320e-01  2.2211757941276439e-01  2.2799383496200359e-01  2.3414618004864945e-01  2.4048235312471902e-01  2.4683411170481617e-01  2.5308594274978824e-01  2.5907487936510720e-01  2.6455633908744569e-01  2.6944348343330687e-01  2.7348885644896304e-01  2.7658527311187903e-01  2.7873190772467332e-01  2.7998652433263116e-01  2.8050261194905540e-01  2.8038104970731192e-01  2.7976508908214426e-01  2.7871609753371579e-01  2.7734790868977743e-01  2.7570212490231882e-01  2.7383045648090309e-01  2.7175389407035910e-01  2.6950346110565970e-01  2.6706547972192612e-01  2.6448208767563830e-01  2.6174817838169234e-01  2.5887750508521185e-01  2.5587386091045727e-01  2.5273930116766036e-01  2.4950103444496771e-01  2.4617591329769545e-01  2.4278491587263273e-01  2.3933939958518419e-01  2.3586961620252933e-01  2.3239199368733959e-01  2.2895637982373507e-01  2.2553900802243587e-01  2.2219952240078000e-01  2.1894375975183314e-01  2.1579990807099247e-01  2.1277423568606302e-01  2.0989193907919421e-01  2.0715839662832253e-01  2.0458695324324469e-01  2.0217711825071064e-01  1.9994219856030879e-01  1.9788013159078019e-01  1.9599413782472322e-01  1.9428102461261321e-01  1.9274007981378169e-01  1.9136298041742814e-01  1.9014495287948793e-01  1.8907664058182436e-01  1.8814764132885653e-01  1.8734473637659066e-01  1.8665415578085998e-01  1.8606152990289193e-01  1.8555223927496489e-01  1.8511282740692425e-01  1.8473106321265129e-01  1.8439684609237228e-01  1.8410190867763795e-01  1.8383965652094622e-01  1.8360508045140717e-01  1.8339449738518027e-01  1.8320505669648535e-01  1.8303471373938796e-01  1.8288192823117028e-01  1.8274563326898724e-01  1.8262507310760764e-01  1.8251977339721986e-01  1.8242941964164189e-01  1.8235380169644519e-01  1.8229260733913544e-01  1.8224526087810328e-01  1.8221081574056602e-01  1.8218803680544451e-01  1.8217571783189010e-01  2.6431486575813434e-01  2.6434072257284691e-01  1.8221739997170483e-01  1.8225667527790657e-01  1.8232516434660295e-01  1.8243098996687196e-01  1.8258547127195660e-01  1.8280287583324029e-01  1.8310032968097475e-01  1.8349825773527897e-01  1.8402038410804394e-01  1.8469348909736888e-01  1.8554825916699300e-01  1.8661683465169454e-01  1.8793602888870120e-01  1.8953553302994416e-01  1.9144854204884146e-01  1.9370249604015222e-01  1.9632466105273194e-01  1.9932130428841288e-01  2.0269619462089578e-01  2.0642717702927482e-01  2.1051933458783201e-01  2.1492521327029931e-01  2.1961308934920024e-01  2.2454278999692945e-01  2.2970442349826770e-01  2.3509008094821129e-01  2.4066294282357928e-01  2.4633820545402701e-01  2.5200341085708811e-01  2.5748149680579785e-01  2.6254753390755042e-01  2.6693100707877565e-01  2.7050173999288507e-01  2.7326209776116139e-01  2.7524953266004532e-01  2.7656900916081156e-01  2.7733596185825948e-01  2.7763332503810378e-01  2.7753691611005427e-01  2.7708559012639483e-01  2.7630737686146079e-01  2.7522774802981270e-01  2.7385452772353019e-01  2.7220864550735280e-01  2.7029249452599080e-01  2.6812578989077590e-01  2.6573964789958204e-01  2.6311715134542335e-01  2.6030258739758072e-01  2.5732383779873808e-01  2.5418167872837888e-01  2.5091021103557914e-01  2.4754378171643560e-01  2.4409529882418463e-01  2.4059225425208747e-01  2.3706498000199991e-01  2.3353411264412269e-01  2.3003316226588974e-01  2.2657911603061967e-01  2.2319161901073925e-01  2.1988985692599777e-01  2.1669998784452660e-01  2.1363132971782772e-01  2.1070056878345145e-01  2.0791780382642175e-01  2.0529150744436689e-01  2.0282951934159982e-01  2.0053790711053809e-01  1.9841893513118802e-01  1.9647689195423995e-01  1.9471053413908959e-01  1.9311944056024322e-01  1.9170040787857523e-01  1.9044663315549346e-01  1.8934950892743341e-01  1.8839774889414393e-01  1.8757701891825723e-01  1.8687193041404823e-01  1.8626638112520269e-01  1.8574476811856386e-01  1.8529314917070541e-01  1.8489925484792760e-01  1.8455312380595768e-01  1.8424661894674960e-01  1.8397329986711114e-01  1.8372808732825385e-01  1.8350694520337457e-01  1.8330671812134436e-01  1.8312509835254476e-01  1.8296041514588809e-01  1.8281168852715340e-01  1.8267850637969071e-01  1.8256095839770559e-01  1.8245939658893007e-01  1.8237420683692784e-01  1.8230553561038218e-01  1.8225312690822959e-01  1.8221649451687658e-01  1.8219543437564864e-01  2.6431988534167206e-01  2.6436012654443036e-01  1.8225500240780734e-01  1.8231056647320540e-01  1.8240354823847924e-01  1.8254171035331593e-01  1.8273693382337586e-01  1.8300445583208999e-01  1.8336250675504473e-01  1.8383224137423443e-01  1.8443735328278527e-01  1.8520414344022962e-01  1.8616094646370265e-01  1.8733572474591642e-01  1.8875883924988215e-01  1.9045172456545723e-01  1.9243468959010002e-01  1.9471982721948530e-01  1.9731714505678183e-01  2.0021264763433327e-01  2.0339584438415764e-01  2.0683216341206143e-01  2.1049839098329501e-01  2.1435841808534217e-01  2.1840246414030356e-01  2.2264953720562630e-01  2.2716582168178936e-01  2.3201607118672557e-01  2.3721431092727355e-01  2.4277303102327605e-01  2.4857390667089505e-01  2.5440318252715821e-01  2.5989652536156582e-01  2.6472528564183495e-01  2.6869270048173910e-01  2.7178471884775368e-01  2.7411518733140128e-01  2.7583877254585343e-01  2.7708005656177426e-01  2.7792953244014790e-01  2.7843409839233602e-01  2.7861214416787922e-01  2.7847020468764699e-01  2.7800445713185407e-01  2.7720431127478856e-01  2.7607505837052843e-01  2.7461956605048293e-01  2.7285089179431254e-01  2.7078006556497686e-01  2.6842391780373775e-01  2.6582143089355148e-01  2.6299042214214152e-01  2.5995908552148439e-01  2.5676137174379049e-01  2.5342253815522531e-01  2.4997227090679297e-01  2.4643197512554155e-01  2.4283835473680948e-01  2.3921752212767644e-01  2.3559267295467989e-01  2.3199135809254923e-01  2.2843464527467319e-01  2.2494269543041712e-01  2.2153733264842243e-01  2.1823786792614999e-01  2.1505618950061878e-01  2.1200704312318597e-01  2.0910332359392844e-01  2.0635607072673853e-01  2.0377332773069753e-01  2.0136340216287765e-01  1.9913400397031689e-01  1.9708957915952213e-01  1.9523316906013272e-01  1.9356609834695243e-01  1.9208546685303557e-01  1.9078481441671086e-01  1.8965374891086015e-01  1.8867785878575427e-01  1.8784029625120413e-01  1.8712228774034784e-01  1.8650552452017846e-01  1.8597310852288851e-01  1.8551027198508047e-01  1.8510471300036557e-01  1.8474653578789896e-01  1.8442749589478905e-01  1.8414105698470826e-01  1.8388186521235844e-01  1.8364567414983343e-01  1.8342936508472996e-01  1.8323078525783032e-01  1.8304871589721439e-01  1.8288281745566304e-01  1.8273342292847550e-01  1.8260131380894482e-01  1.8248741256971793e-01  1.8239246662544290e-01  1.8231698163673765e-01  1.8226158302669923e-01  1.8222787547507857e-01  2.6432787687782483e-01  2.6439142746372696e-01  1.8230638358973361e-01  1.8237966310296905e-01  1.8249889942681391e-01  1.8267079609258990e-01  1.8290745642427406e-01  1.8322509513890972e-01  1.8364310056699223e-01  1.8418387996784347e-01  1.8487185748553850e-01  1.8573385193869607e-01  1.8679674694982157e-01  1.8808776369387450e-01  1.8963083654013907e-01  1.9144531357459990e-01  1.9353807217073160e-01  1.9591217765891125e-01  1.9855942451606187e-01  2.0146078769348558e-01  2.0456918746273831e-01  2.0785910235553398e-01  2.1128311504086950e-01  2.1482120145883066e-01  2.1847821591155051e-01  2.2232707779606975e-01  2.2652474703427858e-01  2.3127173328212688e-01  2.3664721079473969e-01  2.4267039170596733e-01  2.4926353166918028e-01  2.5608778106248486e-01  2.6253599940800293e-01  2.6807183340112123e-01  2.7242297175564484e-01  2.7564950848777897e-01  2.7799318621230645e-01  2.7972311086711821e-01  2.8101611723971703e-01  2.8199332303639457e-01  2.8270065333133532e-01  2.8314147866287781e-01  2.8330536189297695e-01  2.8316493043524937e-01  2.8270263656074873e-01  2.8189919962791798e-01  2.8074224608406378e-01  2.7924193852675938e-01  2.7740544089294228e-01  2.7525329092062439e-01  2.7280768462964794e-01  2.7009452845404347e-01  2.6714743209868014e-01  2.6399606972257367e-01  2.6066511876604037e-01  2.5718994666160322e-01  2.5359751224413141e-01  2.4991663285676713e-01  2.4617314218602096e-01  2.4239668791525665e-01  2.3861241676552303e-01  2.3483931947924833e-01  2.3110645966382037e-01  2.2743394148152313e-01  2.2384409326026519e-01  2.2034894409735092e-01  2.1697020760320357e-01  2.1372349118097925e-01  2.1062113554380174e-01  2.0768070037107508e-01  2.0491231922883138e-01  2.0232934784286816e-01  1.9994263845286570e-01  1.9776104843283987e-01  1.9579065284731026e-01  1.9403336968128027e-01  1.9248583244603329e-01  1.9113911128871408e-01  1.8997829769947783e-01  1.8898399054345150e-01  1.8813422207321942e-01  1.8740659808456261e-01  1.8678019653261874e-01  1.8623705853793937e-01  1.8576218260274213e-01  1.8534340839783034e-01  1.8497074486727161e-01  1.8463585760003451e-01  1.8433196524152623e-01  1.8405366007153037e-01  1.8379703315250884e-01  1.8355937941689732e-01  1.8333926458458200e-01  1.8313630586058494e-01  1.8295094771597281e-01  1.8278418276727476e-01  1.8263727516747619e-01  1.8251145999541327e-01  1.8240805120435971e-01  1.8232911403965130e-01  1.8227883315833743e-01  2.6434107623993314e-01  2.6443246534561610e-01  1.8237296327379315e-01  1.8246344584513119e-01  1.8260835680067788e-01  1.8281301758644816e-01  1.8308962105059817e-01  1.8345504445853325e-01  1.8393014314391873e-01  1.8453861033382626e-01  1.8530677179828320e-01  1.8626217531077965e-01  1.8743220385942880e-01  1.8884655465135644e-01  1.9052201980313324e-01  1.9247744390924926e-01  1.9471656103318402e-01  1.9722748049016497e-01  1.9999390591554805e-01  2.0298149894603501e-01  2.0614107876177012e-01  2.0941944847011551e-01  2.1277275425971712e-01  2.1617490856539434e-01  2.1965280888444819e-01  2.2336313598119917e-01  2.2761254591820881e-01  2.3276193658755151e-01  2.3897626790725954e-01  2.4629535153061047e-01  2.5471102370572368e-01  2.6360527351060864e-01  2.7189401035335320e-01  2.7858941187994668e-01  2.8338440655385772e-01  2.8649299553873675e-01  2.8844658424140052e-01  2.8970431051061007e-01  2.9055763615132857e-01  2.9117670438850080e-01  2.9161783365669014e-01  2.9187534028453893e-01  2.9192551412566869e-01  2.9173385891054215e-01  2.9126458855522996e-01  2.9048605458180410e-01  2.8938430567839729e-01  2.8795072675841532e-01  2.8617683561493423e-01  2.8408062962723923e-01  2.8168510640968941e-01  2.7901121140134183e-01  2.7607476448797874e-01  2.7291532894517073e-01  2.6955005357623296e-01  2.6601204021870861e-01  2.6233312294442257e-01  2.5852828975161030e-01  2.5463092638474782e-01  2.5066120555507015e-01  2.4665031154792599e-01  2.4262116650357665e-01  2.3859568234429959e-01  2.3459836959116720e-01  2.3065005141550321e-01  2.2677703677272867e-01  2.2299636984863852e-01  2.1932917809502686e-01  2.1579641772131883e-01  2.1241765724172640e-01  2.0920990575608953e-01  2.0619365726739877e-01  2.0338685954390298e-01  2.0080530137398789e-01  1.9846203821089875e-01  1.9636504589836629e-01  1.9451523768711249e-01  1.9290584496394320e-01  1.9152136554532131e-01  1.9033940430997326e-01  1.8933266664804521e-01  1.8847315186436198e-01  1.8773497308863837e-01  1.8709585072818757e-01  1.8653789784989172e-01  1.8604662107922901e-01  1.8560989238859524e-01  1.8521754550130595e-01  1.8486104260336150e-01  1.8453376018539497e-01  1.8423075203885253e-01  1.8394874268130740e-01  1.8368597747425183e-01  1.8344188546549922e-01  1.8321681395275669e-01  1.8301179347584906e-01  1.8282818589635882e-01  1.8266760750481803e-01  1.8253222155827709e-01  1.8242577914363900e-01  1.8235566650399737e-01  2.6436144679730789e-01  2.6447765960068104e-01  1.8245560694728608e-01  1.8256072286584873e-01  1.8272820660151773e-01  1.8296240231920613e-01  1.8327528033164062e-01  1.8368439659678704e-01  1.8421178764565091e-01  1.8488270072856092e-01  1.8572573138706588e-01  1.8676964847723704e-01  1.8804566881637633e-01  1.8958115738763373e-01  1.9139742782748667e-01  1.9350896552636010e-01  1.9591538683297233e-01  1.9860545743522939e-01  2.0154816982112711e-01  2.0468995433825740e-01  2.0797531187606838e-01  2.1135593802330194e-01  2.14765286791