<?xml version="1.0"?>
<VTKFile type="UnstructuredGrid"  version="0.1"  >
<UnstructuredGrid>
<Piece  NumberOfPoints="5151" NumberOfCells="10000">
<Points>
<DataArray  type="Float64"  NumberOfComponents="3"  format="ascii">0 0 0  0.02 0 0  0.04 0 0  0.06 0 0  0.08 0 0  0.1 0 0  0.12 0 0  0.14 0 0  0.16 0 0  0.18 0 0  0.2 0 0  0.22 0 0  0.24 0 0  0.26 0 0  0.28 0 0  0.3 0 0  0.32 0 0  0.34 0 0  0.36 0 0  0.38 0 0  0.4 0 0  0.42 0 0  0.44 0 0  0.46 0 0  0.48 0 0  0.5 0 0  0.52 0 0  0.54 0 0  0.5600000000000001 0 0  0.58 0 0  0.6 0 0  0.62 0 0  0.64 0 0  0.66 0 0  0.68 0 0  0.7 0 0  0.72 0 0  0.74 0 0  0.76 0 0  0.78 0 0  0.8 0 0  0.82 0 0  0.84 0 0  0.86 0 0  0.88 0 0  0.9 0 0  0.92 0 0  0.9399999999999999 0 0  0.96 0 0  0.98 0 0  1 0 0  1.02 0 0  1.04 0 0  1.06 0 0  1.08 0 0  1.1 0 0  1.12 0 0  1.14 0 0  1.16 0 0  1.18 0 0  1.2 0 0  1.22 0 0  1.24 0 0  1.26 0 0  1.28 0 0  1.3 0 0  1.32 0 0  1.34 0 0  1.36 0 0  1.38 0 0  1.4 0 0  1.42 0 0  1.44 0 0  1.46 0 0  1.48 0 0  1.5 0 0  1.52 0 0  1.54 0 0  1.56 0 0  1.58 0 0  1.6 0 0  1.62 0 0  1.64 0 0  1.66 0 0  1.68 0 0  1.7 0 0  1.72 0 0  1.74 0 0  1.76 0 0  1.78 0 0  1.8 0 0  1.82 0 0  1.84 0 0  1.86 0 0  1.88 0 0  1.9 0 0  1.92 0 0  1.94 0 0  1.96 0 0  1.98 0 0  2 0 0  0 0.02 0  0.02 0.02 0  0.04 0.02 0  0.06 0.02 0  0.08 0.02 0  0.1 0.02 0  0.12 0.02 0  0.14 0.02 0  0.16 0.02 0  0.18 0.02 0  0.2 0.02 0  0.22 0.02 0  0.24 0.02 0  0.26 0.02 0  0.28 0.02 0  0.3 0.02 0  0.32 0.02 0  0.34 0.02 0  0.36 0.02 0  0.38 0.02 0  0.4 0.02 0  0.42 0.02 0  0.44 0.02 0  0.46 0.02 0  0.48 0.02 0  0.5 0.02 0  0.52 0.02 0  0.54 0.02 0  0.5600000000000001 0.02 0  0.58 0.02 0  0.6 0.02 0  0.62 0.02 0  0.64 0.02 0  0.66 0.02 0  0.68 0.02 0  0.7 0.02 0  0.72 0.02 0  0.74 0.02 0  0.76 0.02 0  0.78 0.02 0  0.8 0.02 0  0.82 0.02 0  0.84 0.02 0  0.86 0.02 0  0.88 0.02 0  0.9 0.02 0  0.92 0.02 0  0.9399999999999999 0.02 0  0.96 0.02 0  0.98 0.02 0  1 0.02 0  1.02 0.02 0  1.04 0.02 0  1.06 0.02 0  1.08 0.02 0  1.1 0.02 0  1.12 0.02 0  1.14 0.02 0  1.16 0.02 0  1.18 0.02 0  1.2 0.02 0  1.22 0.02 0  1.24 0.02 0  1.26 0.02 0  1.28 0.02 0  1.3 0.02 0  1.32 0.02 0  1.34 0.02 0  1.36 0.02 0  1.38 0.02 0  1.4 0.02 0  1.42 0.02 0  1.44 0.02 0  1.46 0.02 0  1.48 0.02 0  1.5 0.02 0  1.52 0.02 0  1.54 0.02 0  1.56 0.02 0  1.58 0.02 0  1.6 0.02 0  1.62 0.02 0  1.64 0.02 0  1.66 0.02 0  1.68 0.02 0  1.7 0.02 0  1.72 0.02 0  1.74 0.02 0  1.76 0.02 0  1.78 0.02 0  1.8 0.02 0  1.82 0.02 0  1.84 0.02 0  1.86 0.02 0  1.88 0.02 0  1.9 0.02 0  1.92 0.02 0  1.94 0.02 0  1.96 0.02 0  1.98 0.02 0  2 0.02 0  0 0.04 0  0.02 0.04 0  0.04 0.04 0  0.06 0.04 0  0.08 0.04 0  0.1 0.04 0  0.12 0.04 0  0.14 0.04 0  0.16 0.04 0  0.18 0.04 0  0.2 0.04 0  0.22 0.04 0  0.24 0.04 0  0.26 0.04 0  0.28 0.04 0  0.3 0.04 0  0.32 0.04 0  0.34 0.04 0  0.36 0.04 0  0.38 0.04 0  0.4 0.04 0  0.42 0.04 0  0.44 0.04 0  0.46 0.04 0  0.48 0.04 0  0.5 0.04 0  0.52 0.04 0  0.54 0.04 0  0.5600000000000001 0.04 0  0.58 0.04 0  0.6 0.04 0  0.62 0.04 0  0.64 0.04 0  0.66 0.04 0  0.68 0.04 0  0.7 0.04 0  0.72 0.04 0  0.74 0.04 0  0.76 0.04 0  0.78 0.04 0  0.8 0.04 0  0.82 0.04 0  0.84 0.04 0  0.86 0.04 0  0.88 0.04 0  0.9 0.04 0  0.92 0.04 0  0.9399999999999999 0.04 0  0.96 0.04 0  0.98 0.04 0  1 0.04 0  1.02 0.04 0  1.04 0.04 0  1.06 0.04 0  1.08 0.04 0  1.1 0.04 0  1.12 0.04 0  1.14 0.04 0  1.16 0.04 0  1.18 0.04 0  1.2 0.04 0  1.22 0.04 0  1.24 0.04 0  1.26 0.04 0  1.28 0.04 0  1.3 0.04 0  1.32 0.04 0  1.34 0.04 0  1.36 0.04 0  1.38 0.04 0  1.4 0.04 0  1.42 0.04 0  1.44 0.04 0  1.46 0.04 0  1.48 0.04 0  1.5 0.04 0  1.52 0.04 0  1.54 0.04 0  1.56 0.04 0  1.58 0.04 0  1.6 0.04 0  1.62 0.04 0  1.64 0.04 0  1.66 0.04 0  1.68 0.04 0  1.7 0.04 0  1.72 0.04 0  1.74 0.04 0  1.76 0.04 0  1.78 0.04 0  1.8 0.04 0  1.82 0.04 0  1.84 0.04 0  1.86 0.04 0  1.88 0.04 0  1.9 0.04 0  1.92 0.04 0  1.94 0.04 0  1.96 0.04 0  1.98 0.04 0  2 0.04 0  0 0.06 0  0.02 0.06 0  0.04 0.06 0  0.06 0.06 0  0.08 0.06 0  0.1 0.06 0  0.12 0.06 0  0.14 0.06 0  0.16 0.06 0  0.18 0.06 0  0.2 0.06 0  0.22 0.06 0  0.24 0.06 0  0.26 0.06 0  0.28 0.06 0  0.3 0.06 0  0.32 0.06 0  0.34 0.06 0  0.36 0.06 0  0.38 0.06 0  0.4 0.06 0  0.42 0.06 0  0.44 0.06 0  0.46 0.06 0  0.48 0.06 0  0.5 0.06 0  0.52 0.06 0  0.54 0.06 0  0.5600000000000001 0.06 0  0.58 0.06 0  0.6 0.06 0  0.62 0.06 0  0.64 0.06 0  0.66 0.06 0  0.68 0.06 0  0.7 0.06 0  0.72 0.06 0  0.74 0.06 0  0.76 0.06 0  0.78 0.06 0  0.8 0.06 0  0.82 0.06 0  0.84 0.06 0  0.86 0.06 0  0.88 0.06 0  0.9 0.06 0  0.92 0.06 0  0.9399999999999999 0.06 0  0.96 0.06 0  0.98 0.06 0  1 0.06 0  1.02 0.06 0  1.04 0.06 0  1.06 0.06 0  1.08 0.06 0  1.1 0.06 0  1.12 0.06 0  1.14 0.06 0  1.16 0.06 0  1.18 0.06 0  1.2 0.06 0  1.22 0.06 0  1.24 0.06 0  1.26 0.06 0  1.28 0.06 0  1.3 0.06 0  1.32 0.06 0  1.34 0.06 0  1.36 0.06 0  1.38 0.06 0  1.4 0.06 0  1.42 0.06 0  1.44 0.06 0  1.46 0.06 0  1.48 0.06 0  1.5 0.06 0  1.52 0.06 0  1.54 0.06 0  1.56 0.06 0  1.58 0.06 0  1.6 0.06 0  1.62 0.06 0  1.64 0.06 0  1.66 0.06 0  1.68 0.06 0  1.7 0.06 0  1.72 0.06 0  1.74 0.06 0  1.76 0.06 0  1.78 0.06 0  1.8 0.06 0  1.82 0.06 0  1.84 0.06 0  1.86 0.06 0  1.88 0.06 0  1.9 0.06 0  1.92 0.06 0  1.94 0.06 0  1.96 0.06 0  1.98 0.06 0  2 0.06 0  0 0.08 0  0.02 0.08 0  0.04 0.08 0  0.06 0.08 0  0.08 0.08 0  0.1 0.08 0  0.12 0.08 0  0.14 0.08 0  0.16 0.08 0  0.18 0.08 0  0.2 0.08 0  0.22 0.08 0  0.24 0.08 0  0.26 0.08 0  0.28 0.08 0  0.3 0.08 0  0.32 0.08 0  0.34 0.08 0  0.36 0.08 0  0.38 0.08 0  0.4 0.08 0  0.42 0.08 0  0.44 0.08 0  0.46 0.08 0  0.48 0.08 0  0.5 0.08 0  0.52 0.08 0  0.54 0.08 0  0.5600000000000001 0.08 0  0.58 0.08 0  0.6 0.08 0  0.62 0.08 0  0.64 0.08 0  0.66 0.08 0  0.68 0.08 0  0.7 0.08 0  0.72 0.08 0  0.74 0.08 0  0.76 0.08 0  0.78 0.08 0  0.8 0.08 0  0.82 0.08 0  0.84 0.08 0  0.86 0.08 0  0.88 0.08 0  0.9 0.08 0  0.92 0.08 0  0.9399999999999999 0.08 0  0.96 0.08 0  0.98 0.08 0  1 0.08 0  1.02 0.08 0  1.04 0.08 0  1.06 0.08 0  1.08 0.08 0  1.1 0.08 0  1.12 0.08 0  1.14 0.08 0  1.16 0.08 0  1.18 0.08 0  1.2 0.08 0  1.22 0.08 0  1.24 0.08 0  1.26 0.08 0  1.28 0.08 0  1.3 0.08 0  1.32 0.08 0  1.34 0.08 0  1.36 0.08 0  1.38 0.08 0  1.4 0.08 0  1.42 0.08 0  1.44 0.08 0  1.46 0.08 0  1.48 0.08 0  1.5 0.08 0  1.52 0.08 0  1.54 0.08 0  1.56 0.08 0  1.58 0.08 0  1.6 0.08 0  1.62 0.08 0  1.64 0.08 0  1.66 0.08 0  1.68 0.08 0  1.7 0.08 0  1.72 0.08 0  1.74 0.08 0  1.76 0.08 0  1.78 0.08 0  1.8 0.08 0  1.82 0.08 0  1.84 0.08 0  1.86 0.08 0  1.88 0.08 0  1.9 0.08 0  1.92 0.08 0  1.94 0.08 0  1.96 0.08 0  1.98 0.08 0  2 0.08 0  0 0.1 0  0.02 0.1 0  0.04 0.1 0  0.06 0.1 0  0.08 0.1 0  0.1 0.1 0  0.12 0.1 0  0.14 0.1 0  0.16 0.1 0  0.18 0.1 0  0.2 0.1 0  0.22 0.1 0  0.24 0.1 0  0.26 0.1 0  0.28 0.1 0  0.3 0.1 0  0.32 0.1 0  0.34 0.1 0  0.36 0.1 0  0.38 0.1 0  0.4 0.1 0  0.42 0.1 0  0.44 0.1 0  0.46 0.1 0  0.48 0.1 0  0.5 0.1 0  0.52 0.1 0  0.54 0.1 0  0.5600000000000001 0.1 0  0.58 0.1 0  0.6 0.1 0  0.62 0.1 0  0.64 0.1 0  0.66 0.1 0  0.68 0.1 0  0.7 0.1 0  0.72 0.1 0  0.74 0.1 0  0.76 0.1 0  0.78 0.1 0  0.8 0.1 0  0.82 0.1 0  0.84 0.1 0  0.86 0.1 0  0.88 0.1 0  0.9 0.1 0  0.92 0.1 0  0.9399999999999999 0.1 0  0.96 0.1 0  0.98 0.1 0  1 0.1 0  1.02 0.1 0  1.04 0.1 0  1.06 0.1 0  1.08 0.1 0  1.1 0.1 0  1.12 0.1 0  1.14 0.1 0  1.16 0.1 0  1.18 0.1 0  1.2 0.1 0  1.22 0.1 0  1.24 0.1 0  1.26 0.1 0  1.28 0.1 0  1.3 0.1 0  1.32 0.1 0  1.34 0.1 0  1.36 0.1 0  1.38 0.1 0  1.4 0.1 0  1.42 0.1 0  1.44 0.1 0  1.46 0.1 0  1.48 0.1 0  1.5 0.1 0  1.52 0.1 0  1.54 0.1 0  1.56 0.1 0  1.58 0.1 0  1.6 0.1 0  1.62 0.1 0  1.64 0.1 0  1.66 0.1 0  1.68 0.1 0  1.7 0.1 0  1.72 0.1 0  1.74 0.1 0  1.76 0.1 0  1.78 0.1 0  1.8 0.1 0  1.82 0.1 0  1.84 0.1 0  1.86 0.1 0  1.88 0.1 0  1.9 0.1 0  1.92 0.1 0  1.94 0.1 0  1.96 0.1 0  1.98 0.1 0  2 0.1 0  0 0.12 0  0.02 0.12 0  0.04 0.12 0  0.06 0.12 0  0.08 0.12 0  0.1 0.12 0  0.12 0.12 0  0.14 0.12 0  0.16 0.12 0  0.18 0.12 0  0.2 0.12 0  0.22 0.12 0  0.24 0.12 0  0.26 0.12 0  0.28 0.12 0  0.3 0.12 0  0.32 0.12 0  0.34 0.12 0  0.36 0.12 0  0.38 0.12 0  0.4 0.12 0  0.42 0.12 0  0.44 0.12 0  0.46 0.12 0  0.48 0.12 0  0.5 0.12 0  0.52 0.12 0  0.54 0.12 0  0.5600000000000001 0.12 0  0.58 0.12 0  0.6 0.12 0  0.62 0.12 0  0.64 0.12 0  0.66 0.12 0  0.68 0.12 0  0.7 0.12 0  0.72 0.12 0  0.74 0.12 0  0.76 0.12 0  0.78 0.12 0  0.8 0.12 0  0.82 0.12 0  0.84 0.12 0  0.86 0.12 0  0.88 0.12 0  0.9 0.12 0  0.92 0.12 0  0.9399999999999999 0.12 0  0.96 0.12 0  0.98 0.12 0  1 0.12 0  1.02 0.12 0  1.04 0.12 0  1.06 0.12 0  1.08 0.12 0  1.1 0.12 0  1.12 0.12 0  1.14 0.12 0  1.16 0.12 0  1.18 0.12 0  1.2 0.12 0  1.22 0.12 0  1.24 0.12 0  1.26 0.12 0  1.28 0.12 0  1.3 0.12 0  1.32 0.12 0  1.34 0.12 0  1.36 0.12 0  1.38 0.12 0  1.4 0.12 0  1.42 0.12 0  1.44 0.12 0  1.46 0.12 0  1.48 0.12 0  1.5 0.12 0  1.52 0.12 0  1.54 0.12 0  1.56 0.12 0  1.58 0.12 0  1.6 0.12 0  1.62 0.12 0  1.64 0.12 0  1.66 0.12 0  1.68 0.12 0  1.7 0.12 0  1.72 0.12 0  1.74 0.12 0  1.76 0.12 0  1.78 0.12 0  1.8 0.12 0  1.82 0.12 0  1.84 0.12 0  1.86 0.12 0  1.88 0.12 0  1.9 0.12 0  1.92 0.12 0  1.94 0.12 0  1.96 0.12 0  1.98 0.12 0  2 0.12 0  0 0.14 0  0.02 0.14 0  0.04 0.14 0  0.06 0.14 0  0.08 0.14 0  0.1 0.14 0  0.12 0.14 0  0.14 0.14 0  0.16 0.14 0  0.18 0.14 0  0.2 0.14 0  0.22 0.14 0  0.24 0.14 0  0.26 0.14 0  0.28 0.14 0  0.3 0.14 0  0.32 0.14 0  0.34 0.14 0  0.36 0.14 0  0.38 0.14 0  0.4 0.14 0  0.42 0.14 0  0.44 0.14 0  0.46 0.14 0  0.48 0.14 0  0.5 0.14 0  0.52 0.14 0  0.54 0.14 0  0.5600000000000001 0.14 0  0.58 0.14 0  0.6 0.14 0  0.62 0.14 0  0.64 0.14 0  0.66 0.14 0  0.68 0.14 0  0.7 0.14 0  0.72 0.14 0  0.74 0.14 0  0.76 0.14 0  0.78 0.14 0  0.8 0.14 0  0.82 0.14 0  0.84 0.14 0  0.86 0.14 0  0.88 0.14 0  0.9 0.14 0  0.92 0.14 0  0.9399999999999999 0.14 0  0.96 0.14 0  0.98 0.14 0  1 0.14 0  1.02 0.14 0  1.04 0.14 0  1.06 0.14 0  1.08 0.14 0  1.1 0.14 0  1.12 0.14 0  1.14 0.14 0  1.16 0.14 0  1.18 0.14 0  1.2 0.14 0  1.22 0.14 0  1.24 0.14 0  1.26 0.14 0  1.28 0.14 0  1.3 0.14 0  1.32 0.14 0  1.34 0.14 0  1.36 0.14 0  1.38 0.14 0  1.4 0.14 0  1.42 0.14 0  1.44 0.14 0  1.46 0.14 0  1.48 0.14 0  1
[...]
<PointData  Scalars="sols[i]"> 
<DataArray  type="Float64"  Name="sols[i]"  format="ascii">5.0052561116731530e-03  3.3424468958848405e-03  3.3424468958849051e-03  3.3424468958850161e-03  3.3424468958851900e-03  3.3424468958854507e-03  3.3424468958858163e-03  3.3424468958863306e-03  3.3424468958870262e-03  3.3424468958879500e-03  3.3424468958891695e-03  3.3424468958907516e-03  3.3424468958927790e-03  3.3424468958953581e-03  3.3424468958986146e-03  3.3424468959026704e-03  3.3424468959076994e-03  3.3424468959139019e-03  3.3424468959214922e-03  3.3424468959307569e-03  3.3424468959420439e-03  3.3424468959557516e-03  3.3424468959724007e-03  3.3424468959926288e-03  3.3424468960171964e-03  3.3424468960470723e-03  3.3424468960834347e-03  3.3424468961277352e-03  3.3424468961817714e-03  3.3424468962477212e-03  3.3424468963283455e-03  3.3424468964270877e-03  3.3424468965483332e-03  3.3424468966978447e-03  3.3424468968835165e-03  3.3424468971167132e-03  3.3424468974150826e-03  3.3424468978078188e-03  3.3424468983468069e-03  3.3424468991282864e-03  3.3424469003376788e-03  3.3424469023397088e-03  3.3424469058585963e-03  3.3424469123365897e-03  3.3424469246362064e-03  3.3424469484004331e-03  3.3424469946383424e-03  3.3424470845479950e-03  3.3424472583039105e-03  3.3424475906396779e-03  3.3424482176153012e-03  3.3424493809234971e-03  3.3424514980975014e-03  3.3424552681326539e-03  3.3424618203635663e-03  3.3424729056206318e-03  3.3424911018302569e-03  3.3425199347830148e-03  3.3425636559809911e-03  3.3426262039883692e-03  3.3427090656338262e-03  3.3428090018370340e-03  3.3429169445801307e-03  3.3430180693489239e-03  3.3430940176589785e-03  3.3431285898322311e-03  3.3431146309945235e-03  3.3430567484368833e-03  3.3429685565597067e-03  3.3428677531125673e-03  3.3427703956631569e-03  3.3426868152839338e-03  3.3426210007455330e-03  3.3425725155613517e-03  3.3425389910378585e-03  3.3425179791196679e-03  3.3425079212411951e-03  3.3425084549436107e-03  3.3425202853168078e-03  3.3425446587137964e-03  3.3425823094671830e-03  3.3426317907177734e-03  3.3426875800030963e-03  3.3427394249522339e-03  3.3427751042982234e-03  3.3427863651203328e-03  3.3427730975641654e-03  3.3427417589329614e-03  3.3427005824692730e-03  3.3426560522708099e-03  3.3426122980578167e-03  3.3425720725680755e-03  3.3425373823485279e-03  3.3425093801356378e-03  3.3424882051649998e-03  3.3424731484497849e-03  3.3424630407537749e-03  3.3424566390398919e-03  3.3424528886656923e-03  3.3424510593923380e-03  9.9593310883734753e-03  3.3424468958848700e-03  1.6740296622244615e-03  1.6740296622244990e-03  1.6740296622245641e-03  1.6740296622246664e-03  1.6740296622248200e-03  1.6740296622250394e-03  1.6740296622253488e-03  1.6740296622257760e-03  1.6740296622263519e-03  1.6740296622271215e-03  1.6740296622281344e-03  1.6740296622294469e-03  1.6740296622311311e-03  1.6740296622332713e-03  1.6740296622359562e-03  1.6740296622392954e-03  1.6740296622434238e-03  1.6740296622484879e-03  1.6740296622546722e-03  1.6740296622622063e-03  1.6740296622713570e-03  1.6740296622824635e-03  1.6740296622959473e-03  1.6740296623123172e-03  1.6740296623322056e-03  1.6740296623563979e-03  1.6740296623858530e-03  1.6740296624217570e-03  1.6740296624655577e-03  1.6740296625190577e-03  1.6740296625845151e-03  1.6740296626647625e-03  1.6740296627634650e-03  1.6740296628855241e-03  1.6740296630377905e-03  1.6740296632305046e-03  1.6740296634800737e-03  1.6740296638146426e-03  1.6740296642854615e-03  1.6740296649899685e-03  1.6740296661186880e-03  1.6740296680500925e-03  1.6740296715409154e-03  1.6740296781041844e-03  1.6740296907509207e-03  1.6740297154233367e-03  1.6740297637147256e-03  1.6740298579216713e-03  1.6740300401928917e-03  1.6740303886062114e-03  1.6740310444374896e-03  1.6740322565327761e-03  1.6740344501045184e-03  1.6740383275327705e-03  1.6740450060339271e-03  1.6740561860558098e-03  1.6740743058745026e-03  1.6741025184378187e-03  1.6741440683826563e-03  1.6742006355968549e-03  1.6742704720468281e-03  1.6743475787176128e-03  1.6744214678387132e-03  1.6744783232587835e-03  1.6745053449894211e-03  1.6744966624846899e-03  1.6744556356018138e-03  1.6743924027613568e-03  1.6743202628579175e-03  1.6742512122660321e-03  1.6741926653138968e-03  1.6741471307063303e-03  1.6741138889840885e-03  1.6740909596686176e-03  1.6740764476278168e-03  1.6740691866016339e-03  1.6740689227679963e-03  1.6740762384556825e-03  1.6740922404812084e-03  1.6741178759912213e-03  1.6741527023631389e-03  1.6741932272956719e-03  1.6742319049549525e-03  1.6742590002598017e-03  1.6742677249291375e-03  1.6742580821693771e-03  1.6742353825446601e-03  1.6742060246654393e-03  1.6741746552518661e-03  1.6741439680076312e-03  1.6741157636332945e-03  1.6740914796533129e-03  1.6740719800948302e-03  1.6740573602872630e-03  1.6740470737800562e-03  1.6740402438032420e-03  1.6740359574036147e-03  1.6740334497053319e-03  1.6740321837226619e-03  3.3424510006451109e-03  3.3424468958850356e-03  1.6740296622245444e-03  1.6740296622246088e-03  1.6740296622247200e-03  1.6740296622248961e-03  1.6740296622251615e-03  1.6740296622255464e-03  1.6740296622260967e-03  1.6740296622268684e-03  1.6740296622279288e-03  1.6740296622293669e-03  1.6740296622312864e-03  1.6740296622338063e-03  1.6740296622370699e-03  1.6740296622412452e-03  1.6740296622465133e-03  1.6740296622530916e-03  1.6740296622612400e-03  1.6740296622712496e-03  1.6740296622834809e-03  1.6740296622983766e-03  1.6740296623164630e-03  1.6740296623384010e-03  1.6740296623650125e-03  1.6740296623972979e-03  1.6740296624365009e-03  1.6740296624841589e-03  1.6740296625421553e-03  1.6740296626128147e-03  1.6740296626989802e-03  1.6740296628041671e-03  1.6740296629327378e-03  1.6740296630901234e-03  1.6740296632832173e-03  1.6740296635209821e-03  1.6740296638154933e-03  1.6740296641839429e-03  1.6740296646524740e-03  1.6740296652638246e-03  1.6740296660929237e-03  1.6740296672788167e-03  1.6740296690902756e-03  1.6740296720605043e-03  1.6740296772622663e-03  1.6740296868657445e-03  1.6740297052584830e-03  1.6740297412651259e-03  1.6740298124779780e-03  1.6740299535436475e-03  1.6740302316495272e-03  1.6740307746474494e-03  1.6740318203891939e-03  1.6740337997783673e-03  1.6740374700824165e-03  1.6740441181537871e-03  1.6740558551025058e-03  1.6740760242911449e-03  1.6741097155496220e-03  1.6741641390703795e-03  1.6742476163398774e-03  1.6743651408632455e-03  1.6745134217472188e-03  1.6746798019018031e-03  1.6748409358817217e-03  1.6749637912085700e-03  1.6750170181418919e-03  1.6749882805476926e-03  1.6748889134139552e-03  1.6747444936975064e-03  1.6745868522589711e-03  1.6744428471619506e-03  1.6743264258852989e-03  1.6742396958400706e-03  1.6741784593211745e-03  1.6741371031104603e-03  1.6741112100244948e-03  1.6740984344036499e-03  1.6740985725096371e-03  1.6741133486831230e-03  1.6741458998883198e-03  1.6741994888270729e-03  1.6742747067660989e-03  1.6743647961510429e-03  1.6744515855388828e-03  1.6745098237903801e-03  1.6745229454558357e-03  1.6744942041723152e-03  1.6744396935688597e-03  1.6743751998422314e-03  1.6743097051109628e-03  1.6742470553562170e-03  1.6741901259334302e-03  1.6741419142171166e-03  1.6741041968268650e-03  1.6740768493325535e-03  1.6740583168379315e-03  1.6740464792721628e-03  1.6740393236109306e-03  1.6740352762682504e-03  1.6740332885392586e-03  3.3424525618322735e-03  3.3424468958853900e-03  1.6740296622247263e-03  1.6740296622248507e-03  1.6740296622250713e-03  1.6740296622254221e-03  1.6740296622259560e-03  1.6740296622267425e-03  1.6740296622278791e-03  1.6740296622294907e-03  1.6740296622317311e-03  1.6740296622347964e-03  1.6740296622389204e-03  1.6740296622443712e-03  1.6740296622514694e-03  1.6740296622605802e-03  1.6740296622721129e-03  1.6740296622865440e-03  1.6740296623044321e-03  1.6740296623264216e-03  1.6740296623532918e-03  1.6740296623859972e-03  1.6740296624256953e-03  1.6740296624738224e-03  1.6740296625321637e-03  1.6740296626029133e-03  1.6740296626887913e-03  1.6740296627931524e-03  1.6740296629201175e-03  1.6740296630747592e-03  1.6740296632632918e-03  1.6740296634933621e-03  1.6740296637744044e-03  1.6740296641180891e-03  1.6740296645390189e-03  1.6740296650557759e-03  1.6740296656926321e-03  1.6740296664826512e-03  1.6740296674734991e-03  1.6740296687388532e-03  1.6740296704015672e-03  1.6740296726812844e-03  1.6740296759932645e-03  1.6740296811541687e-03  1.6740296898099703e-03  1.6740297053219767e-03  1.6740297345883522e-03  1.6740297917510999e-03  1.6740299056407636e-03  1.6740301344758248e-03  1.6740305942689660e-03  1.6740315122555319e-03  1.6740333240318481e-03  1.6740368428791530e-03  1.6740435403209697e-03  1.6740559856271899e-03  1.6740785025888855e-03  1.6741181489856008e-03  1.6741862600207068e-03  1.6743006425062707e-03  1.6744848958995849e-03  1.6747548903219046e-03  1.6751035466031469e-03  1.6755025610731878e-03  1.6758963387443428e-03  1.6761970753229724e-03  1.6763172687037167e-03  1.6762278151018677e-03  1.6759673935783782e-03  1.6756044714841525e-03  1.6752230605404572e-03  1.6748903230959999e-03  1.6746340178391910e-03  1.6744510064005313e-03  1.6743255913749934e-03  1.6742420944287908e-03  1.6741898104382948e-03  1.6741637207015230e-03  1.6741639762182315e-03  1.6741954152553066e-03  1.6742668929668315e-03  1.6743890296775715e-03  1.6745678231546684e-03  1.6747908052279813e-03  1.6750102411138734e-03  1.6751522860118549e-03  1.6751705404606633e-03  1.6750828462858745e-03  1.6749406932851745e-03  1.6747859464604543e-03  1.6746358836014419e-03  1.6744940510255287e-03  1.6743655242673812e-03  1.6742582396009839e-03  1.6741765836809730e-03  1.6741194570647554e-03  1.6740822462054084e-03  1.6740594168550076e-03  1.6740461403666482e-03  1.6740388846999197e-03  1.6740354123143989e-03  3.3424556789704526e-03  3.3424468958861164e-03  1.6740296622250999e-03  1.6740296622253547e-03  1.6740296622258109e-03  1.6740296622265467e-03  1.6740296622276777e-03  1.6740296622293615e-03  1.6740296622318161e-03  1.6740296622353228e-03  1.6740296622402358e-03  1.6740296622469982e-03  1.6740296622561402e-03  1.6740296622682798e-03  1.6740296622841410e-03  1.6740296623045485e-03  1.6740296623304314e-03  1.6740296623628578e-03  1.6740296624030682e-03  1.6740296624525065e-03  1.6740296625129096e-03  1.6740296625863942e-03  1.6740296626755512e-03  1.6740296627835889e-03  1.6740296629144922e-03  1.6740296630731821e-03  1.6740296632657473e-03  1.6740296634997025e-03  1.6740296637842852e-03  1.6740296641308463e-03  1.6740296645533024e-03  1.6740296650687356e-03  1.6740296656981414e-03  1.6740296664673777e-03  1.6740296674085146e-03  1.6740296685617761e-03  1.6740296699785486e-03  1.6740296717265202e-03  1.6740296738989595e-03  1.6740296766324671e-03  1.6740296801425018e-03  1.6740296847962131e-03  1.6740296912642317e-03  1.6740297008398786e-03  1.6740297161124992e-03  1.6740297423869454e-03  1.6740297906645085e-03  1.6740298838594401e-03  1.6740300696320874e-03  1.6740304465161597e-03  1.6740312161386576e-03  1.6740327850791933e-03  1.6740359572741683e-03  1.6740422823580089e-03  1.6740546521816029e-03  1.6740782530781631e-03  1.6741219787070249e-03  1.6742005245633110e-03  1.6743382643332075e-03  1.6745783367638676e-03  1.6749893043305536e-03  1.6756210311967435e-03  1.6764538414849605e-03  1.6774276613348675e-03  1.6784163920790457e-03  1.6791807441633628e-03  1.6794613182114669e-03  1.6791889420624869e-03  1.6784983333450094e-03  1.6775684539385000e-03  1.6766277485104166e-03  1.6758491867874083e-03  1.6752812214741010e-03  1.6748930944098844e-03  1.6746338457065200e-03  1.6744622456748475e-03  1.6743536331784875e-03  1.6742978346711379e-03  1.6742964999517818e-03  1.6743623052055019e-03  1.6745189853076485e-03  1.6747986764657401e-03  1.6752293775473333e-03  1.6757956489951589e-03  1.6763709490318236e-03  1.6767286992757197e-03  1.6767326454453022e-03  1.6764643982412608e-03  1.6760897082668076e-03  1.6757174841273044e-03  1.6753725373258653e-03  1.6750459035607076e-03  1.6747479913539170e-03  1.6745033688737618e-03  1.6743233016417842e-03  1.6742024358165609e-03  1.6741270734758817e-03  1.6740827784548027e-03  1.6740580299059965e-03  1.6740449689732332e-03  1.6740388737136857e-03  3.3424607579214706e-03  3.3424468958875740e-03  1.6740296622258567e-03  1.6740296622263886e-03  1.6740296622273498e-03  1.6740296622289154e-03  1.6740296622313412e-03  1.6740296622349859e-03  1.6740296622403373e-03  1.6740296622480351e-03  1.6740296622588891e-03  1.6740296622739076e-03  1.6740296622943043e-03  1.6740296623214991e-03  1.6740296623571377e-03  1.6740296624030940e-03  1.6740296624614794e-03  1.6740296625346997e-03  1.6740296626255320e-03  1.6740296627372200e-03  1.6740296628736475e-03  1.6740296630395471e-03  1.6740296632407308e-03  1.6740296634844051e-03  1.6740296637795210e-03  1.6740296641371585e-03  1.6740296645710306e-03  1.6740296650980559e-03  1.6740296657390421e-03  1.6740296665195440e-03  1.6740296674708907e-03  1.6740296686314842e-03  1.6740296700484224e-03  1.6740296717795364e-03  1.6740296738961449e-03  1.6740296764868421e-03  1.6740296796630848e-03  1.6740296835681527e-03  1.6740296883925223e-03  1.6740296944022114e-03  1.6740297019940148e-03  1.6740297118073076e-03  1.6740297249562268e-03  1.6740297435197038e-03  1.6740297715847749e-03  1.6740298174767216e-03  1.6740298985270900e-03  1.6740300512364042e-03  1.6740303528012207e-03  1.6740309662722098e-03  1.6740322339611968e-03  1.6740348668626798e-03  1.6740403182532461e-03  1.6740514919804321e-03  1.6740740100596135e-03  1.6741182904203454e-03  1.6742025007895687e-03  1.6743561203039932e-03  1.6746259637622578e-03  1.6751035175366926e-03  1.6759785546615873e-03  1.6773944608694930e-03  1.6792699901234719e-03  1.6815150559653452e-03  1.6839632839514100e-03  1.6860326054086653e-03  1.6868480284621852e-03  1.6861377898993032e-03  1.6843616553827844e-03  1.6819757857439010e-03  1.6796462615605735e-03  1.6778393436703563e-03  1.6766039279051167e-03  1.6757976325732225e-03  1.6752690694480207e-03  1.6749172143535195e-03  1.6746895534787160e-03  1.6745673810946106e-03  1.6745570145995379e-03  1.6746894798831398e-03  1.6750248678119842e-03  1.6756540757439952e-03  1.6766838211949386e-03  1.6781353794986752e-03  1.6796786459973051e-03  1.6805914978753238e-03  1.6804612210353468e-03  1.6796412380297959e-03  1.6786617370456039e-03  1.6777888324190694e-03  1.6770151424941983e-03  1.6762626643239177e-03  1.6755634128006241e-03  1.6750026015683664e-03  1.6746076031369248e-03  1.6743555013519816e-03  1.6742059965572510e-03  1.6741221676896078e-03  1.6740772875862401e-03  1.6740544512403659e-03  1.6740440665309305e-03  3.3424683108159940e-03  3.3424468958904766e-03  1.6740296622273767e-03  1.6740296622284948e-03  1.6740296622305291e-03  1.6740296622338674e-03  1.6740296622390811e-03  1.6740296622469741e-03  1.6740296622586484e-03  1.6740296622755535e-03  1.6740296622995414e-03  1.6740296623329160e-03  1.6740296623784534e-03  1.6740296624394152e-03  1.6740296625195616e-03  1.6740296626231569e-03  1.6740296627549981e-03  1.6740296629205128e-03  1.6740296631259342e-03  1.6740296633785295e-03  1.6740296636869956e-03  1.6740296640619266e-03  1.6740296645163676e-03  1.6740296650665145e-03  1.6740296657325035e-03  1.6740296665393073e-03  1.6740296675178388e-03  1.6740296687062410e-03  1.6740296701514377e-03  1.6740296719110473e-03  1.6740296740556863e-03  1.6740296766718547e-03  1.6740296798654910e-03  1.6740296837664237e-03  1.6740296885341518e-03  1.6740296943655645e-03  1.6740297015057678e-03  1.6740297102644432e-03  1.6740297210423674e-03  1.6740297343778503e-03  1.6740297510337827e-03  1.6740297721693574e-03  1.6740297996917909e-03  1.6740298369951575e-03  1.6740298905373705e-03  1.6740299732392922e-03  1.6740301118496725e-03  1.6740303629295922e-03  1.6740308474962127e-03  1.6740318257702676e-03  1.6740338571391671e-03  1.6740381380606912e-03  1.6740472017156157e-03  1.6740663225048255e-03  1.6741061966906656e-03  1.6741875799046590e-03  1.6743472936232319e-03  1.6746397221600094e-03  1.6751258827936663e-03  1.6758907853590590e-03  2.5164978180220797e-03  3.3665762247657989e-03  3.3804796964318272e-03  3.3969421067060676e-03  3.4165563441198111e-03  3.4373667839191066e-03  2.5694614671533853e-03  1.7004823271757124e-03  1.6972507192373537e-03  1.6916664172541864e-03  1.6859721615163136e-03  1.6818632934519214e-03  1.6792624279045019e-03  1.6776388638721886e-03  1.6765796310681601e-03  1.6758590287891831e-03  1.6753772389628530e-03  1.6751046556232030e-03  1.6750594464726859e-03  1.6753122458321834e-03  1.6760055473796754e-03  1.6773735851033319e-03  1.6797523978470674e-03  1.6833471460206864e-03  1.6873168246501983e-03  1.6894841175435094e-03  1.6886898970407242e-03  1.6863121812881810e-03  1.6839253437179558e-03  1.6820942641430662e-03  1.6805565864201439e-03  1.6789064620927048e-03  1.6772691484299815e-03  1.6759876353814466e-03  1.6751351775882726e-03  1.6746235497156594e-03  1.6743370902072814e-03  1.6741845528639894e-03  1.6741065032330239e-03  1.6740682677000797e-03  1.6740513390029151e-03  3.3424787746348769e-03  3.3424468958962567e-03  1.6740296622304259e-03  1.6740296622327763e-03  1.6740296622370777e-03  1.6740296622441845e-03  1.6740296622553658e-03  1.6740296622724258e-03  1.6740296622978477e-03  1.6740296623349207e-03  1.6740296623878703e-03  1.6740296624619671e-03  1.6740296625635798e-03  1.6740296627001966e-03  1.6740296628804288e-03  1.6740296631140000e-03  1.6740296634118023e-03  1.6740296637860876e-03  1.6740296642508365e-03  1.6740296648223353e-03  1.6740296655200365e-03  1.6740296663676506e-03  1.6740296673944505e-03  1.6740296686368402e-03  1.6740296701401377e-03  1.6740296719606322e-03  1.6740296741680294e-03  1.6740296768483626e-03  1.6740296801074821e-03  1.6740296840753453e-03  1.6740296889112113e-03  1.6740296948100665e-03  1.6740297020105101e-03  1.6740297108045542e-03  1.6740297215500760e-03  1.6740297346869732e-03  1.6740297507590030e-03  1.6740297704450305e-03  1.6740297946068172e-03  1.6740298243679026e-03  1.6740298612539293e-03  1.6740299074587085e-03  1.6740299663746978e-03  1.6740300436898154e-03  1.6740301497126901e-03  1.6740303043870299e-03  1.6740305482282343e-03  1.6740309663499655e-03  1.6740317414683790e-03  1.6740332710132809e-03  1.6740364255855751e-03  1.6740431168580600e-03  1.6740575343193848e-03  1.6740887952305960e-03  1.6741564435015905e-03  1.6743006939150642e-03  1.6745923788597378e-03  1.6751123807528165e-03  2.5131014552995643e-03  3.3536498562277330e-03  5.0366979454024947e-03  6.1852284032445703e-01  6.8751143199450826e-01  7.5503413996283386e-01  8.2207869889825047e-01  8.7203438524143229e-01  9.1928318143285426e-01  5.4160796000267105e-03  2.6082541931317571e-03  1.7102811716226717e-03  1.6985535881183815e-03  1.6897479294351878e-03  1.6845554913829709e-03  1.6814089722823509e-03  1.6793103030425974e-03  1.6778224019104190e-03  1.6767878469410508e-03  1.6761703703870067e-03  1.6760123926997917e-03  1.6764622030138929e-03  1.6778310101719844e-03  1.6806097330919795e-03  1.6854350173446464e-03  1.6927436890798457e-03  2.5698285154740846e-03  3.4684796258115831e-03  3.4565974408724727e-03  3.4324190331891597e-03  3.4125119912291834e-03  3.4002502480086835e-03  3.3919883642158188e-03  2.5309681167117368e-03  1.6805936514291660e-03  1.6778353751687799e-03  1.6760584184930037e-03  1.6750627586703572e-03  1.6745398454294847e-03  1.6742763277402368e-03  1.6741476437613909e-03  1.6740869667137802e-03  1.6740608093960565e-03  3.3424922621717139e-03  3.3424468959077102e-03  1.6740296622365148e-03  1.6740296622414412e-03  1.6740296622505056e-03  1.6740296622655816e-03  1.6740296622894861e-03  1.6740296623262551e-03  1.6740296623814757e-03  1.6740296624626093e-03  1.6740296625792955e-03  1.6740296627436042e-03  1.6740296629701641e-03  1.6740296632761842e-03  1.6740296636814076e-03  1.6740296642080441e-03  1.6740296648808306e-03  1.6740296657274179e-03  1.6740296667791729e-03  1.6740296680725305e-03  1.6740296696509675e-03  1.6740296715675317e-03  1.67402967388