<?xml version="1.0"?>
<VTKFile type="UnstructuredGrid"  version="0.1"  >
<UnstructuredGrid>
<Piece  NumberOfPoints="5151" NumberOfCells="10000">
<Points>
<DataArray  type="Float64"  NumberOfComponents="3"  format="ascii">0 0 0  0.02 0 0  0.04 0 0  0.06 0 0  0.08 0 0  0.1 0 0  0.12 0 0  0.14 0 0  0.16 0 0  0.18 0 0  0.2 0 0  0.22 0 0  0.24 0 0  0.26 0 0  0.28 0 0  0.3 0 0  0.32 0 0  0.34 0 0  0.36 0 0  0.38 0 0  0.4 0 0  0.42 0 0  0.44 0 0  0.46 0 0  0.48 0 0  0.5 0 0  0.52 0 0  0.54 0 0  0.5600000000000001 0 0  0.58 0 0  0.6 0 0  0.62 0 0  0.64 0 0  0.66 0 0  0.68 0 0  0.7 0 0  0.72 0 0  0.74 0 0  0.76 0 0  0.78 0 0  0.8 0 0  0.82 0 0  0.84 0 0  0.86 0 0  0.88 0 0  0.9 0 0  0.92 0 0  0.9399999999999999 0 0  0.96 0 0  0.98 0 0  1 0 0  1.02 0 0  1.04 0 0  1.06 0 0  1.08 0 0  1.1 0 0  1.12 0 0  1.14 0 0  1.16 0 0  1.18 0 0  1.2 0 0  1.22 0 0  1.24 0 0  1.26 0 0  1.28 0 0  1.3 0 0  1.32 0 0  1.34 0 0  1.36 0 0  1.38 0 0  1.4 0 0  1.42 0 0  1.44 0 0  1.46 0 0  1.48 0 0  1.5 0 0  1.52 0 0  1.54 0 0  1.56 0 0  1.58 0 0  1.6 0 0  1.62 0 0  1.64 0 0  1.66 0 0  1.68 0 0  1.7 0 0  1.72 0 0  1.74 0 0  1.76 0 0  1.78 0 0  1.8 0 0  1.82 0 0  1.84 0 0  1.86 0 0  1.88 0 0  1.9 0 0  1.92 0 0  1.94 0 0  1.96 0 0  1.98 0 0  2 0 0  0 0.02 0  0.02 0.02 0  0.04 0.02 0  0.06 0.02 0  0.08 0.02 0  0.1 0.02 0  0.12 0.02 0  0.14 0.02 0  0.16 0.02 0  0.18 0.02 0  0.2 0.02 0  0.22 0.02 0  0.24 0.02 0  0.26 0.02 0  0.28 0.02 0  0.3 0.02 0  0.32 0.02 0  0.34 0.02 0  0.36 0.02 0  0.38 0.02 0  0.4 0.02 0  0.42 0.02 0  0.44 0.02 0  0.46 0.02 0  0.48 0.02 0  0.5 0.02 0  0.52 0.02 0  0.54 0.02 0  0.5600000000000001 0.02 0  0.58 0.02 0  0.6 0.02 0  0.62 0.02 0  0.64 0.02 0  0.66 0.02 0  0.68 0.02 0  0.7 0.02 0  0.72 0.02 0  0.74 0.02 0  0.76 0.02 0  0.78 0.02 0  0.8 0.02 0  0.82 0.02 0  0.84 0.02 0  0.86 0.02 0  0.88 0.02 0  0.9 0.02 0  0.92 0.02 0  0.9399999999999999 0.02 0  0.96 0.02 0  0.98 0.02 0  1 0.02 0  1.02 0.02 0  1.04 0.02 0  1.06 0.02 0  1.08 0.02 0  1.1 0.02 0  1.12 0.02 0  1.14 0.02 0  1.16 0.02 0  1.18 0.02 0  1.2 0.02 0  1.22 0.02 0  1.24 0.02 0  1.26 0.02 0  1.28 0.02 0  1.3 0.02 0  1.32 0.02 0  1.34 0.02 0  1.36 0.02 0  1.38 0.02 0  1.4 0.02 0  1.42 0.02 0  1.44 0.02 0  1.46 0.02 0  1.48 0.02 0  1.5 0.02 0  1.52 0.02 0  1.54 0.02 0  1.56 0.02 0  1.58 0.02 0  1.6 0.02 0  1.62 0.02 0  1.64 0.02 0  1.66 0.02 0  1.68 0.02 0  1.7 0.02 0  1.72 0.02 0  1.74 0.02 0  1.76 0.02 0  1.78 0.02 0  1.8 0.02 0  1.82 0.02 0  1.84 0.02 0  1.86 0.02 0  1.88 0.02 0  1.9 0.02 0  1.92 0.02 0  1.94 0.02 0  1.96 0.02 0  1.98 0.02 0  2 0.02 0  0 0.04 0  0.02 0.04 0  0.04 0.04 0  0.06 0.04 0  0.08 0.04 0  0.1 0.04 0  0.12 0.04 0  0.14 0.04 0  0.16 0.04 0  0.18 0.04 0  0.2 0.04 0  0.22 0.04 0  0.24 0.04 0  0.26 0.04 0  0.28 0.04 0  0.3 0.04 0  0.32 0.04 0  0.34 0.04 0  0.36 0.04 0  0.38 0.04 0  0.4 0.04 0  0.42 0.04 0  0.44 0.04 0  0.46 0.04 0  0.48 0.04 0  0.5 0.04 0  0.52 0.04 0  0.54 0.04 0  0.5600000000000001 0.04 0  0.58 0.04 0  0.6 0.04 0  0.62 0.04 0  0.64 0.04 0  0.66 0.04 0  0.68 0.04 0  0.7 0.04 0  0.72 0.04 0  0.74 0.04 0  0.76 0.04 0  0.78 0.04 0  0.8 0.04 0  0.82 0.04 0  0.84 0.04 0  0.86 0.04 0  0.88 0.04 0  0.9 0.04 0  0.92 0.04 0  0.9399999999999999 0.04 0  0.96 0.04 0  0.98 0.04 0  1 0.04 0  1.02 0.04 0  1.04 0.04 0  1.06 0.04 0  1.08 0.04 0  1.1 0.04 0  1.12 0.04 0  1.14 0.04 0  1.16 0.04 0  1.18 0.04 0  1.2 0.04 0  1.22 0.04 0  1.24 0.04 0  1.26 0.04 0  1.28 0.04 0  1.3 0.04 0  1.32 0.04 0  1.34 0.04 0  1.36 0.04 0  1.38 0.04 0  1.4 0.04 0  1.42 0.04 0  1.44 0.04 0  1.46 0.04 0  1.48 0.04 0  1.5 0.04 0  1.52 0.04 0  1.54 0.04 0  1.56 0.04 0  1.58 0.04 0  1.6 0.04 0  1.62 0.04 0  1.64 0.04 0  1.66 0.04 0  1.68 0.04 0  1.7 0.04 0  1.72 0.04 0  1.74 0.04 0  1.76 0.04 0  1.78 0.04 0  1.8 0.04 0  1.82 0.04 0  1.84 0.04 0  1.86 0.04 0  1.88 0.04 0  1.9 0.04 0  1.92 0.04 0  1.94 0.04 0  1.96 0.04 0  1.98 0.04 0  2 0.04 0  0 0.06 0  0.02 0.06 0  0.04 0.06 0  0.06 0.06 0  0.08 0.06 0  0.1 0.06 0  0.12 0.06 0  0.14 0.06 0  0.16 0.06 0  0.18 0.06 0  0.2 0.06 0  0.22 0.06 0  0.24 0.06 0  0.26 0.06 0  0.28 0.06 0  0.3 0.06 0  0.32 0.06 0  0.34 0.06 0  0.36 0.06 0  0.38 0.06 0  0.4 0.06 0  0.42 0.06 0  0.44 0.06 0  0.46 0.06 0  0.48 0.06 0  0.5 0.06 0  0.52 0.06 0  0.54 0.06 0  0.5600000000000001 0.06 0  0.58 0.06 0  0.6 0.06 0  0.62 0.06 0  0.64 0.06 0  0.66 0.06 0  0.68 0.06 0  0.7 0.06 0  0.72 0.06 0  0.74 0.06 0  0.76 0.06 0  0.78 0.06 0  0.8 0.06 0  0.82 0.06 0  0.84 0.06 0  0.86 0.06 0  0.88 0.06 0  0.9 0.06 0  0.92 0.06 0  0.9399999999999999 0.06 0  0.96 0.06 0  0.98 0.06 0  1 0.06 0  1.02 0.06 0  1.04 0.06 0  1.06 0.06 0  1.08 0.06 0  1.1 0.06 0  1.12 0.06 0  1.14 0.06 0  1.16 0.06 0  1.18 0.06 0  1.2 0.06 0  1.22 0.06 0  1.24 0.06 0  1.26 0.06 0  1.28 0.06 0  1.3 0.06 0  1.32 0.06 0  1.34 0.06 0  1.36 0.06 0  1.38 0.06 0  1.4 0.06 0  1.42 0.06 0  1.44 0.06 0  1.46 0.06 0  1.48 0.06 0  1.5 0.06 0  1.52 0.06 0  1.54 0.06 0  1.56 0.06 0  1.58 0.06 0  1.6 0.06 0  1.62 0.06 0  1.64 0.06 0  1.66 0.06 0  1.68 0.06 0  1.7 0.06 0  1.72 0.06 0  1.74 0.06 0  1.76 0.06 0  1.78 0.06 0  1.8 0.06 0  1.82 0.06 0  1.84 0.06 0  1.86 0.06 0  1.88 0.06 0  1.9 0.06 0  1.92 0.06 0  1.94 0.06 0  1.96 0.06 0  1.98 0.06 0  2 0.06 0  0 0.08 0  0.02 0.08 0  0.04 0.08 0  0.06 0.08 0  0.08 0.08 0  0.1 0.08 0  0.12 0.08 0  0.14 0.08 0  0.16 0.08 0  0.18 0.08 0  0.2 0.08 0  0.22 0.08 0  0.24 0.08 0  0.26 0.08 0  0.28 0.08 0  0.3 0.08 0  0.32 0.08 0  0.34 0.08 0  0.36 0.08 0  0.38 0.08 0  0.4 0.08 0  0.42 0.08 0  0.44 0.08 0  0.46 0.08 0  0.48 0.08 0  0.5 0.08 0  0.52 0.08 0  0.54 0.08 0  0.5600000000000001 0.08 0  0.58 0.08 0  0.6 0.08 0  0.62 0.08 0  0.64 0.08 0  0.66 0.08 0  0.68 0.08 0  0.7 0.08 0  0.72 0.08 0  0.74 0.08 0  0.76 0.08 0  0.78 0.08 0  0.8 0.08 0  0.82 0.08 0  0.84 0.08 0  0.86 0.08 0  0.88 0.08 0  0.9 0.08 0  0.92 0.08 0  0.9399999999999999 0.08 0  0.96 0.08 0  0.98 0.08 0  1 0.08 0  1.02 0.08 0  1.04 0.08 0  1.06 0.08 0  1.08 0.08 0  1.1 0.08 0  1.12 0.08 0  1.14 0.08 0  1.16 0.08 0  1.18 0.08 0  1.2 0.08 0  1.22 0.08 0  1.24 0.08 0  1.26 0.08 0  1.28 0.08 0  1.3 0.08 0  1.32 0.08 0  1.34 0.08 0  1.36 0.08 0  1.38 0.08 0  1.4 0.08 0  1.42 0.08 0  1.44 0.08 0  1.46 0.08 0  1.48 0.08 0  1.5 0.08 0  1.52 0.08 0  1.54 0.08 0  1.56 0.08 0  1.58 0.08 0  1.6 0.08 0  1.62 0.08 0  1.64 0.08 0  1.66 0.08 0  1.68 0.08 0  1.7 0.08 0  1.72 0.08 0  1.74 0.08 0  1.76 0.08 0  1.78 0.08 0  1.8 0.08 0  1.82 0.08 0  1.84 0.08 0  1.86 0.08 0  1.88 0.08 0  1.9 0.08 0  1.92 0.08 0  1.94 0.08 0  1.96 0.08 0  1.98 0.08 0  2 0.08 0  0 0.1 0  0.02 0.1 0  0.04 0.1 0  0.06 0.1 0  0.08 0.1 0  0.1 0.1 0  0.12 0.1 0  0.14 0.1 0  0.16 0.1 0  0.18 0.1 0  0.2 0.1 0  0.22 0.1 0  0.24 0.1 0  0.26 0.1 0  0.28 0.1 0  0.3 0.1 0  0.32 0.1 0  0.34 0.1 0  0.36 0.1 0  0.38 0.1 0  0.4 0.1 0  0.42 0.1 0  0.44 0.1 0  0.46 0.1 0  0.48 0.1 0  0.5 0.1 0  0.52 0.1 0  0.54 0.1 0  0.5600000000000001 0.1 0  0.58 0.1 0  0.6 0.1 0  0.62 0.1 0  0.64 0.1 0  0.66 0.1 0  0.68 0.1 0  0.7 0.1 0  0.72 0.1 0  0.74 0.1 0  0.76 0.1 0  0.78 0.1 0  0.8 0.1 0  0.82 0.1 0  0.84 0.1 0  0.86 0.1 0  0.88 0.1 0  0.9 0.1 0  0.92 0.1 0  0.9399999999999999 0.1 0  0.96 0.1 0  0.98 0.1 0  1 0.1 0  1.02 0.1 0  1.04 0.1 0  1.06 0.1 0  1.08 0.1 0  1.1 0.1 0  1.12 0.1 0  1.14 0.1 0  1.16 0.1 0  1.18 0.1 0  1.2 0.1 0  1.22 0.1 0  1.24 0.1 0  1.26 0.1 0  1.28 0.1 0  1.3 0.1 0  1.32 0.1 0  1.34 0.1 0  1.36 0.1 0  1.38 0.1 0  1.4 0.1 0  1.42 0.1 0  1.44 0.1 0  1.46 0.1 0  1.48 0.1 0  1.5 0.1 0  1.52 0.1 0  1.54 0.1 0  1.56 0.1 0  1.58 0.1 0  1.6 0.1 0  1.62 0.1 0  1.64 0.1 0  1.66 0.1 0  1.68 0.1 0  1.7 0.1 0  1.72 0.1 0  1.74 0.1 0  1.76 0.1 0  1.78 0.1 0  1.8 0.1 0  1.82 0.1 0  1.84 0.1 0  1.86 0.1 0  1.88 0.1 0  1.9 0.1 0  1.92 0.1 0  1.94 0.1 0  1.96 0.1 0  1.98 0.1 0  2 0.1 0  0 0.12 0  0.02 0.12 0  0.04 0.12 0  0.06 0.12 0  0.08 0.12 0  0.1 0.12 0  0.12 0.12 0  0.14 0.12 0  0.16 0.12 0  0.18 0.12 0  0.2 0.12 0  0.22 0.12 0  0.24 0.12 0  0.26 0.12 0  0.28 0.12 0  0.3 0.12 0  0.32 0.12 0  0.34 0.12 0  0.36 0.12 0  0.38 0.12 0  0.4 0.12 0  0.42 0.12 0  0.44 0.12 0  0.46 0.12 0  0.48 0.12 0  0.5 0.12 0  0.52 0.12 0  0.54 0.12 0  0.5600000000000001 0.12 0  0.58 0.12 0  0.6 0.12 0  0.62 0.12 0  0.64 0.12 0  0.66 0.12 0  0.68 0.12 0  0.7 0.12 0  0.72 0.12 0  0.74 0.12 0  0.76 0.12 0  0.78 0.12 0  0.8 0.12 0  0.82 0.12 0  0.84 0.12 0  0.86 0.12 0  0.88 0.12 0  0.9 0.12 0  0.92 0.12 0  0.9399999999999999 0.12 0  0.96 0.12 0  0.98 0.12 0  1 0.12 0  1.02 0.12 0  1.04 0.12 0  1.06 0.12 0  1.08 0.12 0  1.1 0.12 0  1.12 0.12 0  1.14 0.12 0  1.16 0.12 0  1.18 0.12 0  1.2 0.12 0  1.22 0.12 0  1.24 0.12 0  1.26 0.12 0  1.28 0.12 0  1.3 0.12 0  1.32 0.12 0  1.34 0.12 0  1.36 0.12 0  1.38 0.12 0  1.4 0.12 0  1.42 0.12 0  1.44 0.12 0  1.46 0.12 0  1.48 0.12 0  1.5 0.12 0  1.52 0.12 0  1.54 0.12 0  1.56 0.12 0  1.58 0.12 0  1.6 0.12 0  1.62 0.12 0  1.64 0.12 0  1.66 0.12 0  1.68 0.12 0  1.7 0.12 0  1.72 0.12 0  1.74 0.12 0  1.76 0.12 0  1.78 0.12 0  1.8 0.12 0  1.82 0.12 0  1.84 0.12 0  1.86 0.12 0  1.88 0.12 0  1.9 0.12 0  1.92 0.12 0  1.94 0.12 0  1.96 0.12 0  1.98 0.12 0  2 0.12 0  0 0.14 0  0.02 0.14 0  0.04 0.14 0  0.06 0.14 0  0.08 0.14 0  0.1 0.14 0  0.12 0.14 0  0.14 0.14 0  0.16 0.14 0  0.18 0.14 0  0.2 0.14 0  0.22 0.14 0  0.24 0.14 0  0.26 0.14 0  0.28 0.14 0  0.3 0.14 0  0.32 0.14 0  0.34 0.14 0  0.36 0.14 0  0.38 0.14 0  0.4 0.14 0  0.42 0.14 0  0.44 0.14 0  0.46 0.14 0  0.48 0.14 0  0.5 0.14 0  0.52 0.14 0  0.54 0.14 0  0.5600000000000001 0.14 0  0.58 0.14 0  0.6 0.14 0  0.62 0.14 0  0.64 0.14 0  0.66 0.14 0  0.68 0.14 0  0.7 0.14 0  0.72 0.14 0  0.74 0.14 0  0.76 0.14 0  0.78 0.14 0  0.8 0.14 0  0.82 0.14 0  0.84 0.14 0  0.86 0.14 0  0.88 0.14 0  0.9 0.14 0  0.92 0.14 0  0.9399999999999999 0.14 0  0.96 0.14 0  0.98 0.14 0  1 0.14 0  1.02 0.14 0  1.04 0.14 0  1.06 0.14 0  1.08 0.14 0  1.1 0.14 0  1.12 0.14 0  1.14 0.14 0  1.16 0.14 0  1.18 0.14 0  1.2 0.14 0  1.22 0.14 0  1.24 0.14 0  1.26 0.14 0  1.28 0.14 0  1.3 0.14 0  1.32 0.14 0  1.34 0.14 0  1.36 0.14 0  1.38 0.14 0  1.4 0.14 0  1.42 0.14 0  1.44 0.14 0  1.46 0.14 0  1.48 0.14 0  1
[...]
<PointData  Scalars="sols[i]"> 
<DataArray  type="Float64"  Name="sols[i]"  format="ascii">1.0731940045046608e-02  7.0955794545557570e-03  7.0955794541759619e-03  7.0955794534706806e-03  7.0955794522489894e-03  7.0955794501616157e-03  7.0955794466016978e-03  7.0955794405991555e-03  7.0955794307226826e-03  7.0955794149917123e-03  7.0955793907960668e-03  7.0955793548217357e-03  7.0955793029843263e-03  7.0955792303737369e-03  7.0955791312159230e-03  7.0955789988583380e-03  7.0955788257857418e-03  7.0955786036716526e-03  7.0955783234689356e-03  7.0955779755401006e-03  7.0955775498235778e-03  7.0955770360286111e-03  7.0955764238472795e-03  7.0955757031682248e-03  7.0955748642750182e-03  7.0955738980115618e-03  7.0955727958981786e-03  7.0955715501862960e-03  7.0955701538451925e-03  7.0955686004810590e-03  7.0955668841971610e-03  7.0955649994102303e-03  7.0955629406458543e-03  7.0955607023395900e-03  7.0955582786730604e-03  7.0955556634738851e-03  7.0955528502066757e-03  7.0955498320767699e-03  7.0955466022642674e-03  7.0955431542994562e-03  7.0955394825846854e-03  7.0955355830616598e-03  7.0955314540178567e-03  7.0955270970183212e-03  7.0955225179435682e-03  7.0955177281061856e-03  7.0955127454099681e-03  7.0955075955043464e-03  7.0955023128748129e-03  7.0954969417938874e-03  7.0954915370433184e-03  7.0954861643040511e-03  7.0954809001022474e-03  7.0954758311994673e-03  7.0954710533261880e-03  7.0954666691820569e-03  7.0954627856655607e-03  7.0954595103487426e-03  7.0954569472797269e-03  7.0954551922664082e-03  7.0954543278706553e-03  7.0954544184126441e-03  7.0954555053460468e-03  7.0954576034083280e-03  7.0954606979669373e-03  7.0954647439449448e-03  7.0954696665934767e-03  7.0954753641885113e-03  7.0954817125044589e-03  7.0954885707010581e-03  7.0954957880972822e-03  7.0955032112203706e-03  7.0955106905319122e-03  7.0955180863282851e-03  7.0955252734659670e-03  7.0955321447352809e-03  7.0955386128641381e-03  7.0955446112567541e-03  7.0955500936521181e-03  7.0955550329275686e-03  7.0955594192819611e-03  7.0955632580199431e-03  7.0955665671325312e-03  7.0955693748362501e-03  7.0955717171934506e-03  7.0955736359003419e-03  7.0955751762918368e-03  7.0955763855796317e-03  7.0955773113144729e-03  7.0955780000447281e-03  7.0955784961349386e-03  7.0955788407101039e-03  7.0955790707064228e-03  7.0955792180393239e-03  7.0955793089454607e-03  7.0955793636150472e-03  7.0955793962768771e-03  7.0955794158870794e-03  7.0955794274216825e-03  7.0955794333490141e-03  2.2209163560180267e-02  7.0955794545790249e-03  3.5196352825563118e-03  3.5196352824372707e-03  3.5196352821846031e-03  3.5196352817128546e-03  3.5196352808766389e-03  3.5196352794394960e-03  3.5196352770345022e-03  3.5196352731228023e-03  3.5196352669524811e-03  3.5196352575182985e-03  3.5196352435225399e-03  3.5196352233378900e-03  3.5196351949742348e-03  3.5196351560518990e-03  3.5196351037844681e-03  3.5196350349743577e-03  3.5196349460238485e-03  3.5196348329634168e-03  3.5196346914980947e-03  3.5196345170705988e-03  3.5196343049381899e-03  3.5196340502584786e-03  3.5196337481774300e-03  3.5196333939119199e-03  3.5196329828189269e-03  3.5196325104439085e-03  3.5196319725426511e-03  3.5196313650735075e-03  3.5196306841599493e-03  3.5196299260273362e-03  3.5196290869210041e-03  3.5196281630161582e-03  3.5196271503325684e-03  3.5196260446680779e-03  3.5196248415653372e-03  3.5196235363252702e-03  3.5196221240786172e-03  3.5196205999244706e-03  3.5196189591417950e-03  3.5196171974763834e-03  3.5196153115023519e-03  3.5196132990538819e-03  3.5196111597188707e-03  3.5196088953823937e-03  3.5196065108039675e-03  3.5196040142077487e-03  3.5196014178602419e-03  3.5195987386046259e-03  3.5195959983148365e-03  3.5195932242270750e-03  3.5195904491020251e-03  3.5195877111685392e-03  3.5195850538009806e-03  3.5195825248883145e-03  3.5195801758641874e-03  3.5195780603843414e-03  3.5195762326602842e-03  3.5195747454862796e-03  3.5195736480264830e-03  3.5195729834598486e-03  3.5195727866103553e-03  3.5195730817158977e-03  3.5195738805107370e-03  3.5195751808095701e-03  3.5195769657752471e-03  3.5195792040110417e-03  3.5195818505417455e-03  3.5195848486506542e-03  3.5195881324402677e-03  3.5195916299020323e-03  3.5195952662279055e-03  3.5195989670849951e-03  3.5196026616035577e-03  3.5196062848872533e-03  3.5196097799299070e-03  3.5196130988967914e-03  3.5196162037907956e-03  3.5196190665685171e-03  3.5196216687980392e-03  3.5196240009620220e-03  3.5196260615099539e-03  3.5196278557560259e-03  3.5196293947069180e-03  3.5196306938878935e-03  3.5196317722186610e-03  3.5196326509735840e-03  3.5196333528439688e-03  3.5196339011068318e-03  3.5196343188942988e-03  3.5196346285521832e-03  3.5196348510761243e-03  3.5196350056189195e-03  3.5196351090734752e-03  3.5196351757501038e-03  3.5196352171820051e-03  3.5196352421003954e-03  3.5196352566153940e-03  3.5196352646230085e-03  3.5196352684783916e-03  7.0955794333657767e-03  7.0955794542729694e-03  3.5196352824659093e-03  3.5196352823212507e-03  3.5196352819771128e-03  3.5196352813143088e-03  3.5196352801481062e-03  3.5196352782120733e-03  3.5196352751360608e-03  3.5196352704194734e-03  3.5196352634021500e-03  3.5196352532349106e-03  3.5196352388512653e-03  3.5196352189416991e-03  3.5196351919320485e-03  3.5196351559676755e-03  3.5196351089053909e-03  3.5196350483149346e-03  3.5196349714914183e-03  3.5196348754794760e-03  3.5196347571090410e-03  3.5196346130413596e-03  3.5196344398226798e-03  3.5196342339421129e-03  3.5196339918889012e-03  3.5196337102040192e-03  3.5196333855212003e-03  3.5196330145927284e-03  3.5196325942969137e-03  3.5196321216258673e-03  3.5196315936542625e-03  3.5196310074924230e-03  3.5196303602291748e-03  3.5196296488720028e-03  3.5196288702938486e-03  3.5196280211962014e-03  3.5196270980984989e-03  3.5196260973629307e-03  3.5196250152622578e-03  3.5196238480962854e-03  3.5196225923606285e-03  3.5196212449686588e-03  3.5196198035249262e-03  3.5196182666459479e-03  3.5196166343210650e-03  3.5196149083035330e-03  3.5196130925195610e-03  3.5196111934799254e-03  3.5196092206762073e-03  3.5196071869405370e-03  3.5196051087442084e-03  3.5196030064073135e-03  3.5196009041890105e-03  3.5195988302265460e-03  3.5195968162918551e-03  3.5195948973379080e-03  3.5195931108134059e-03  3.5195914957349417e-03  3.5195900915206569e-03  3.5195889366094321e-03  3.5195880669113312e-03  3.5195875141572361e-03  3.5195873042374679e-03  3.5195874556354870e-03  3.5195879780747629e-03  3.5195888715046511e-03  3.5195901255456784e-03  3.5195917194851788e-03  3.5195936228650960e-03  3.5195957966469233e-03  3.5195981948800371e-03  3.5196007667465876e-03  3.5196034588154488e-03  3.5196062173214991e-03  3.5196089902974894e-03  3.5196117294191160e-03  3.5196143914714775e-03  3.5196169393941386e-03  3.5196193429048693e-03  3.5196215787344316e-03  3.5196236305253450e-03  3.5196254884586374e-03  3.5196271486756577e-03  3.5196286125598296e-03  3.5196298859377076e-03  3.5196309782497791e-03  3.5196319017318164e-03  3.5196326706371864e-03  3.5196333005196902e-03  3.5196338075880506e-03  3.5196342081365954e-03  3.5196345180535773e-03  3.5196347524087766e-03  3.5196349251246798e-03  3.5196350487381525e-03  3.5196351342572695e-03  3.5196351911052845e-03  3.5196352271172357e-03  3.5196352485308080e-03  3.5196352599533350e-03  3.5196352646692797e-03  7.0955794275116418e-03  7.0955794537352259e-03  3.5196352822813208e-03  3.5196352820509574e-03  3.5196352815161092e-03  3.5196352805296430e-03  3.5196352788734384e-03  3.5196352762516181e-03  3.5196352722835014e-03  3.5196352664900845e-03  3.5196352582759988e-03  3.5196352469101799e-03  3.5196352315075442e-03  3.5196352110136520e-03  3.5196351841935989e-03  3.5196351496262291e-03  3.5196351057047047e-03  3.5196350506440967e-03  3.5196349824963072e-03  3.5196348991720127e-03  3.5196347984688342e-03  3.5196346781040883e-03  3.5196345357497542e-03  3.5196343690671100e-03  3.5196341757377852e-03  3.5196339534882800e-03  3.5196337001053473e-03  3.5196334134402251e-03  3.5196330914007640e-03  3.5196327319317860e-03  3.5196323329852036e-03  3.5196318924831773e-03  3.5196314082785391e-03  3.5196308781179665e-03  3.5196302996142684e-03  3.5196296702340720e-03  3.5196289873069588e-03  3.5196282480616176e-03  3.5196274496929166e-03  3.5196265894627248e-03  3.5196256648356919e-03  3.5196246736491788e-03  3.5196236143147878e-03  3.5196224860470143e-03  3.5196212891124108e-03  3.5196200250912331e-03  3.5196186971423382e-03  3.5196173102609203e-03  3.5196158715178425e-03  3.5196143902684425e-03  3.5196128783170685e-03  3.5196113500226096e-03  3.5196098223291153e-03  3.5196083147047566e-03  3.5196068489720123e-03  3.5196054490122010e-03  3.5196041403289038e-03  3.5196029494588025e-03  3.5196019032270147e-03  3.5196010278591774e-03  3.5196003479801997e-03  3.5195998855481426e-03  3.5195996587894969e-03  3.5195996812083744e-03  3.5195999607400916e-03  3.5196004991154975e-03  3.5196012914908946e-03  3.5196023263762274e-03  3.5196035858764520e-03  3.5196050462526166e-03  3.5196066787953157e-03  3.5196084509733000e-03  3.5196103277806458e-03  3.5196122731754233e-03  3.5196142514936869e-03  3.5196162287350879e-03  3.5196181736445601e-03  3.5196200585467918e-03  3.5196218599195346e-03  3.5196235587142367e-03  3.5196251404473597e-03  3.5196265950944066e-03  3.5196279168230125e-03  3.5196291036025448e-03  3.5196301567273144e-03  3.5196310802877717e-03  3.5196318806205162e-03  3.5196325657636590e-03  3.5196331449382180e-03  3.5196336280720044e-03  3.5196340253787518e-03  3.5196343470039453e-03  3.5196346027485869e-03  3.5196348018821152e-03  3.5196349530512505e-03  3.5196350642766857e-03  3.5196351429981135e-03  3.5196351960787367e-03  3.5196352296378739e-03  3.5196352486325548e-03  3.5196352567601584e-03  7.0955794161367304e-03  7.0955794528667192e-03  3.5196352819593484e-03  3.5196352815639468e-03  3.5196352807321720e-03  3.5196352792942294e-03  3.5196352770029537e-03  3.5196352735331103e-03  3.5196352684849228e-03  3.5196352613796533e-03  3.5196352516496943e-03  3.5196352386270696e-03  3.5196352215331505e-03  3.5196351994716824e-03  3.5196351714262726e-03  3.5196351362630435e-03  3.5196350927387326e-03  3.5196350395142262e-03  3.5196349751728320e-03  3.5196348982422495e-03  3.5196348072187343e-03  3.5196347005913833e-03  3.5196345768643061e-03  3.5196344345744604e-03  3.5196342723030124e-03  3.5196340886786285e-03  3.5196338823719380e-03  3.5196336520810240e-03  3.5196333965087897e-03  3.5196331143340304e-03  3.5196328041787019e-03  3.5196324645748352e-03  3.5196320939348911e-03  3.5196316905298014e-03  3.5196312524791154e-03  3.5196307777570802e-03  3.5196302642179359e-03  3.5196297096429978e-03  3.5196291118107324e-03  3.5196284685901575e-03  3.5196277780568464e-03  3.5196270386293116e-03  3.5196262492221452e-03  3.5196254094109914e-03  3.5196245196028805e-03  3.5196235812049430e-03  3.5196225967845567e-03  3.5196215702144110e-03  3.5196205067965555e-03  3.5196194133604915e-03  3.5196182983304476e-03  3.5196171717574408e-03  3.5196160453119588e-03  3.5196149322321412e-03  3.5196138472202128e-03  3.5196128062757893e-03  3.5196118264495127e-03  3.5196109254973847e-03  3.5196101214201745e-03  3.5196094318890375e-03  3.5196088735827084e-03  3.5196084614890965e-03  3.5196082082492135e-03  3.5196081236161872e-03  3.5196082140699688e-03  3.5196084825870940e-03  3.5196089285197346e-03  3.5196095475134572e-03  3.5196103314310253e-03  3.5196112683327212e-03  3.5196123426169687e-03  3.5196135354068937e-03  3.5196148251980044e-03  3.5196161887084522e-03  3.5196176018312611e-03  3.5196190405830108e-03  3.5196204819658615e-03  3.5196219046906762e-03  3.5196232897370646e-03  3.5196246207460768e-03  3.5196258842528933e-03  3.5196270697729478e-03  3.5196281697580665e-03  3.5196291794413574e-03  3.5196300965920965e-03  3.5196309212031981e-03  3.5196316551351723e-03  3.5196323017404781e-03  3.5196328654900468e-03  3.5196333516220538e-03  3.5196337658311991e-03  3.5196341140157471e-03  3.5196344020989728e-03  3.5196346359390469e-03  3.5196348213326371e-03  3.5196349640958784e-03  3.5196350701663407e-03  3.5196351456091100e-03  3.5196351963472042e-03  3.5196352274449961e-03  3.5196352424421836e-03  7.0955793968387297e-03  7.0955794514987423e-03  3.5196352814391759e-03  3.5196352807865200e-03  3.5196352795513223e-03  3.5196352775440113e-03  3.5196352744886524e-03  3.5196352700295284e-03  3.5196352637410144e-03  3.5196352551283040e-03  3.5196352436229518e-03  3.5196352285773985e-03  3.5196352092613263e-03  3.5196351848618967e-03  3.5196351544888507e-03  3.5196351171848383e-03  3.5196350719408067e-03  3.5196350177157994e-03  3.5196349534596981e-03  3.5196348781370845e-03  3.5196347907500902e-03  3.5196346903576068e-03  3.5196345760883539e-03  3.5196344471458349e-03  3.5196343028035867e-03  3.5196341423902192e-03  3.5196339652649594e-03  3.5196337707851860e-03  3.5196335582684908e-03  3.5196333269525938e-03  3.5196330759566423e-03  3.5196328042480388e-03  3.5196325106184806e-03  3.5196321936728408e-03  3.5196318518339155e-03  3.5196314833649519e-03  3.5196310864108018e-03  3.5196306590577582e-03  3.5196301994108222e-03  3.5196297056866565e-03  3.5196291763199342e-03  3.5196286100795801e-03  3.5196280061903975e-03  3.5196273644544397e-03  3.5196266853654056e-03  3.5196259702097018e-03  3.5196252211490333e-03  3.5196244412810948e-03  3.5196236346771376e-03  3.5196228063974879e-03  3.5196219624878174e-03  3.5196211099611388e-03  3.5196202567721168e-03  3.5196194117888355e-03  3.5196185847615382e-03  3.5196177862755109e-03  3.5196170276581493e-03  3.5196163207949658e-03  3.5196156778091086e-03  3.5196151105887181e-03  3.5196146302013181e-03  3.5196142463032156e-03  3.5196139667158163e-03  3.5196137973194878e-03  3.5196137423069108e-03  3.5196138046778205e-03  3.5196139866868915e-03  3.5196142899024240e-03  3.5196147147249024e-03  3.5196152595415170e-03  3.5196159198927915e-03  3.5196166879889138e-03  3.5196175527222691e-03  3.5196185001277937e-03  3.5196195141326669e-03  3.5196205774192428e-03  3.5196216722660307e-03  3.5196227812879918e-03  3.5196238880443181e-03  3.5196249775097752e-03  3.5196260364172586e-03  3.5196270534811301e-03  3.5196280195096356e-03  3.5196289274143401e-03  3.5196297721271901e-03  3.5196305504394659e-03  3.5196312607816685e-03  3.5196319029666993e-03  3.5196324779189093e-03  3.5196329874114000e-03  3.5196334338325154e-03  3.5196338200014221e-03  3.5196341490512468e-03  3.5196344243942964e-03  3.5196346497734093e-03  3.5196348293806386e-03  3.5196349679845213e-03  3.5196350709452880e-03  3.5196351439142851e-03  3.5196351919251174e-03  3.5196352179126308e-03  7.0955793647695872e-03  7.0955794493617677e-03  3.5196352806388855e-03  3.5196352796444926e-03  3.5196352779142907e-03  3.5196352752404573e-03  3.5196352713173264e-03  3.5196352657588534e-03  3.5196352581105417e-03  3.5196352478518494e-03  3.5196352343950270e-03  3.5196352170844712e-03  3.5196351951990515e-03  3.5196351679591363e-03  3.5196351345391117e-03  3.5196350940855112e-03  3.5196350457401479e-03  3.5196349886670066e-03  3.5196349220807102e-03  3.5196348452739105e-03  3.5196347576406965e-03  3.5196346586926809e-03  3.5196345480648225e-03  3.5196344255088883e-03  3.5196342908734267e-03  3.5196341440706476e-03  3.5196339850324249e-03  3.5196338136585644e-03  3.5196336297617621e-03  3.5196334330142532e-03  3.5196332229011735e-03  3.5196329986856290e-03  3.5196327593895174e-03  3.5196325037932796e-03  3.5196322304563866e-03  3.5196319377584079e-03  3.5196316239590594e-03  3.5196312872744582e-03  3.5196309259659872e-03  3.5196305384381310e-03  3.5196301233417849e-03  3.5196296796785997e-03  3.5196292069010048e-03  3.5196287050014152e-03  3.5196281745832649e-03  3.5196276169079006e-03  3.5196270339139107e-03  3.5196264282085950e-03  3.5196258030349478e-03  3.5196251622211577e-03  3.5196245101236168e-03  3.5196238515795078e-03  3.5196231918890025e-03  3.5196225368452939e-03  3.5196218928171506e-03  3.5196212668584734e-03  3.5196206667741431e-03  3.5196201010266491e-03  3.5196195783569126e-03  3.5196191070580229e-03  3.5196186939858700e-03  3.5196183435937060e-03  3.5196180574734231e-03  3.5196178348482626e-03  3.5196176741542273e-03  3.5196175753246213e-03  3.5196175418004102e-03  3.5196175811213915e-03  3.5196177036300614e-03  3.5196179198792856e-03  3.5196182378957339e-03  3.5196186612558586e-03  3.5196191883471563e-03  3.5196198126662432e-03  3.5196205237553015e-03  3.5196213083746640e-03  3.5196221516340109e-03  3.5196230379481424e-03  3.5196239517880654e-03  3.5196248782512632e-03  3.5196258034880185e-03  3.5196267150122678e-03  3.5196276019120194e-03  3.5196284549648855e-03  3.5196292666626510e-03  3.5196300311526223e-03  3.5196307441108434e-03  3.5196314025681026e-03  3.5196320047114317e-03  3.5196325496837863e-03  3.5196330374030358e-03  3.5196334684195803e-03  3.5196338438300955e-03  3.5196341652610468e-03  3.5196344349259553e-03  3.5196346557408451e-03  3.5196348314498593e-03  3.5196349666597095e-03  3.5196350665852747e-03  3.5196351360929625e-03  3.5196351772384281e-03  7.0955793112213120e-03  7.0955794460828090e-03  3.5196352794551232e-03  3.5196352780716127e-03  3.5196352757929806e-03  3.5196352723930527e-03  3.5196352675368990e-03  3.5196352608110170e-03  3.5196352517328335e-03  3.5196352397518392e-03  3.5196352242501993e-03  3.5196352045461822e-03  3.5196351799021948e-03  3.5196351495386672e-03  3.5196351126543365e-03  3.5196350684528425e-03  3.5196350161745471e-03  3.5196349551317755e-03  3.5196348847444650e-03  3.5196348045726340e-03  3.5196347143417695e-03  3.5196346139569476e-03  3.5196345035018312e-03  3.5196343832202808e-03  3.5196342534796711e-03  3.5196341147173934e-03  3.5196339673743728e-03  3.5196338118208947e-03  3.5196336482814635e-03  3.5196334767659239e-03  3.5196332970137550e-03  3.5196331084578142e-03  3.5196329102121634e-03  3.5196327010865759e-03  3.5196324796279658e-03  3.5196322441859293e-03  3.5196319929974634e-03  3.5196317242847689e-03  3.5196314363599018e-03  3.5196311277311725e-03  3.5196307972070861e-03  3.5196304439931349e-03  3.5196300677751615e-03  3.5196296687814875e-03  3.5196292478153635e-03  3.5196288062519744e-03  3.5196283459987213e-03  3.5196278694224342e-03  3.5196273792521618e-03  3.5196268784718895e-03  3.5196263702254905e-03  3.5196258577680946e-03  3.5196253445088860e-03  3.5196248341887310e-03  3.5196243312063781e-03  3.5196238410344187e-03  3.5196233705500311e-03  3.5196229279777424e-03  3.5196225220864297e-03  3.5196221604238886e-03  3.5196218467617351e-03  3.5196215785284835e-03  3.5196213456196619e-03  3.5196211319551496e-03  3.5196209203493803e-03  3.5196206996668013e-03  3.5196204712541739e-03  3.5196202510556955e-03  3.5196200660942579e-03  3.5196199473437372e-03  3.5196199224531649e-03  3.5196200108599902e-03  3.5196202220139829e-03  3.5196205560680980e-03  3.5196210058925197e-03  3.5196215594082269e-03  3.5196222016359285e-03  3.5196229162363299e-03  3.5196236865625416e-03  3.5196244963489826e-03  3.5196253301680858e-03  3.5196261737478265e-03  3.5196270141974644e-03  3.5196278401558537e-03  3.5196286418623778e-03  3.5196294111512197e-03  3.5196301413788073e-03  3.5196308273024125e-03  3.5196314649305520e-03  3.5196320513651942e-03  3.5196325846535642e-03  3.5196330636647734e-03  3.5196334880051956e-03  3.5196338579844720e-03  3.5196341746376080e-03  3.5196344397955730e-03  3.5196346561779277e-03  3.5196348274475929e-03  3.5196349580761824e-03  3.5196350525440318e-03  3.5196351120057407e-03  7.0955792224376337e-03  7.0955794412236855e-03  3.5196352777723755e-03  3.5196352760165249e-03  3.5196352731964968e-03  3.5196352690644384e-03  3.5196352632598455e-03  3.5196352553480085e-03  3.5196352448222954e-03  3.5196352311018669e-03  3.5196352135331037e-03  3.5196351913967987e-03  3.5196351639218901e-03  3.5196351303065452e-03  3.5196350897469071e-03  3.5196350414731636e-03  3.5196349847914938e-03  3.5196349191293219e-03  3.5196348440799463e-03  3.5196347594417957e-03  3.5196346652472746e-03  3.5196345617755824e-03  3.51963444954