<?xml version="1.0"?>
<VTKFile type="UnstructuredGrid"  version="0.1"  >
<UnstructuredGrid>
<Piece  NumberOfPoints="5151" NumberOfCells="10000">
<Points>
<DataArray  type="Float64"  NumberOfComponents="3"  format="ascii">0 0 0  0.02 0 0  0.04 0 0  0.06 0 0  0.08 0 0  0.1 0 0  0.12 0 0  0.14 0 0  0.16 0 0  0.18 0 0  0.2 0 0  0.22 0 0  0.24 0 0  0.26 0 0  0.28 0 0  0.3 0 0  0.32 0 0  0.34 0 0  0.36 0 0  0.38 0 0  0.4 0 0  0.42 0 0  0.44 0 0  0.46 0 0  0.48 0 0  0.5 0 0  0.52 0 0  0.54 0 0  0.5600000000000001 0 0  0.58 0 0  0.6 0 0  0.62 0 0  0.64 0 0  0.66 0 0  0.68 0 0  0.7 0 0  0.72 0 0  0.74 0 0  0.76 0 0  0.78 0 0  0.8 0 0  0.82 0 0  0.84 0 0  0.86 0 0  0.88 0 0  0.9 0 0  0.92 0 0  0.9399999999999999 0 0  0.96 0 0  0.98 0 0  1 0 0  1.02 0 0  1.04 0 0  1.06 0 0  1.08 0 0  1.1 0 0  1.12 0 0  1.14 0 0  1.16 0 0  1.18 0 0  1.2 0 0  1.22 0 0  1.24 0 0  1.26 0 0  1.28 0 0  1.3 0 0  1.32 0 0  1.34 0 0  1.36 0 0  1.38 0 0  1.4 0 0  1.42 0 0  1.44 0 0  1.46 0 0  1.48 0 0  1.5 0 0  1.52 0 0  1.54 0 0  1.56 0 0  1.58 0 0  1.6 0 0  1.62 0 0  1.64 0 0  1.66 0 0  1.68 0 0  1.7 0 0  1.72 0 0  1.74 0 0  1.76 0 0  1.78 0 0  1.8 0 0  1.82 0 0  1.84 0 0  1.86 0 0  1.88 0 0  1.9 0 0  1.92 0 0  1.94 0 0  1.96 0 0  1.98 0 0  2 0 0  0 0.02 0  0.02 0.02 0  0.04 0.02 0  0.06 0.02 0  0.08 0.02 0  0.1 0.02 0  0.12 0.02 0  0.14 0.02 0  0.16 0.02 0  0.18 0.02 0  0.2 0.02 0  0.22 0.02 0  0.24 0.02 0  0.26 0.02 0  0.28 0.02 0  0.3 0.02 0  0.32 0.02 0  0.34 0.02 0  0.36 0.02 0  0.38 0.02 0  0.4 0.02 0  0.42 0.02 0  0.44 0.02 0  0.46 0.02 0  0.48 0.02 0  0.5 0.02 0  0.52 0.02 0  0.54 0.02 0  0.5600000000000001 0.02 0  0.58 0.02 0  0.6 0.02 0  0.62 0.02 0  0.64 0.02 0  0.66 0.02 0  0.68 0.02 0  0.7 0.02 0  0.72 0.02 0  0.74 0.02 0  0.76 0.02 0  0.78 0.02 0  0.8 0.02 0  0.82 0.02 0  0.84 0.02 0  0.86 0.02 0  0.88 0.02 0  0.9 0.02 0  0.92 0.02 0  0.9399999999999999 0.02 0  0.96 0.02 0  0.98 0.02 0  1 0.02 0  1.02 0.02 0  1.04 0.02 0  1.06 0.02 0  1.08 0.02 0  1.1 0.02 0  1.12 0.02 0  1.14 0.02 0  1.16 0.02 0  1.18 0.02 0  1.2 0.02 0  1.22 0.02 0  1.24 0.02 0  1.26 0.02 0  1.28 0.02 0  1.3 0.02 0  1.32 0.02 0  1.34 0.02 0  1.36 0.02 0  1.38 0.02 0  1.4 0.02 0  1.42 0.02 0  1.44 0.02 0  1.46 0.02 0  1.48 0.02 0  1.5 0.02 0  1.52 0.02 0  1.54 0.02 0  1.56 0.02 0  1.58 0.02 0  1.6 0.02 0  1.62 0.02 0  1.64 0.02 0  1.66 0.02 0  1.68 0.02 0  1.7 0.02 0  1.72 0.02 0  1.74 0.02 0  1.76 0.02 0  1.78 0.02 0  1.8 0.02 0  1.82 0.02 0  1.84 0.02 0  1.86 0.02 0  1.88 0.02 0  1.9 0.02 0  1.92 0.02 0  1.94 0.02 0  1.96 0.02 0  1.98 0.02 0  2 0.02 0  0 0.04 0  0.02 0.04 0  0.04 0.04 0  0.06 0.04 0  0.08 0.04 0  0.1 0.04 0  0.12 0.04 0  0.14 0.04 0  0.16 0.04 0  0.18 0.04 0  0.2 0.04 0  0.22 0.04 0  0.24 0.04 0  0.26 0.04 0  0.28 0.04 0  0.3 0.04 0  0.32 0.04 0  0.34 0.04 0  0.36 0.04 0  0.38 0.04 0  0.4 0.04 0  0.42 0.04 0  0.44 0.04 0  0.46 0.04 0  0.48 0.04 0  0.5 0.04 0  0.52 0.04 0  0.54 0.04 0  0.5600000000000001 0.04 0  0.58 0.04 0  0.6 0.04 0  0.62 0.04 0  0.64 0.04 0  0.66 0.04 0  0.68 0.04 0  0.7 0.04 0  0.72 0.04 0  0.74 0.04 0  0.76 0.04 0  0.78 0.04 0  0.8 0.04 0  0.82 0.04 0  0.84 0.04 0  0.86 0.04 0  0.88 0.04 0  0.9 0.04 0  0.92 0.04 0  0.9399999999999999 0.04 0  0.96 0.04 0  0.98 0.04 0  1 0.04 0  1.02 0.04 0  1.04 0.04 0  1.06 0.04 0  1.08 0.04 0  1.1 0.04 0  1.12 0.04 0  1.14 0.04 0  1.16 0.04 0  1.18 0.04 0  1.2 0.04 0  1.22 0.04 0  1.24 0.04 0  1.26 0.04 0  1.28 0.04 0  1.3 0.04 0  1.32 0.04 0  1.34 0.04 0  1.36 0.04 0  1.38 0.04 0  1.4 0.04 0  1.42 0.04 0  1.44 0.04 0  1.46 0.04 0  1.48 0.04 0  1.5 0.04 0  1.52 0.04 0  1.54 0.04 0  1.56 0.04 0  1.58 0.04 0  1.6 0.04 0  1.62 0.04 0  1.64 0.04 0  1.66 0.04 0  1.68 0.04 0  1.7 0.04 0  1.72 0.04 0  1.74 0.04 0  1.76 0.04 0  1.78 0.04 0  1.8 0.04 0  1.82 0.04 0  1.84 0.04 0  1.86 0.04 0  1.88 0.04 0  1.9 0.04 0  1.92 0.04 0  1.94 0.04 0  1.96 0.04 0  1.98 0.04 0  2 0.04 0  0 0.06 0  0.02 0.06 0  0.04 0.06 0  0.06 0.06 0  0.08 0.06 0  0.1 0.06 0  0.12 0.06 0  0.14 0.06 0  0.16 0.06 0  0.18 0.06 0  0.2 0.06 0  0.22 0.06 0  0.24 0.06 0  0.26 0.06 0  0.28 0.06 0  0.3 0.06 0  0.32 0.06 0  0.34 0.06 0  0.36 0.06 0  0.38 0.06 0  0.4 0.06 0  0.42 0.06 0  0.44 0.06 0  0.46 0.06 0  0.48 0.06 0  0.5 0.06 0  0.52 0.06 0  0.54 0.06 0  0.5600000000000001 0.06 0  0.58 0.06 0  0.6 0.06 0  0.62 0.06 0  0.64 0.06 0  0.66 0.06 0  0.68 0.06 0  0.7 0.06 0  0.72 0.06 0  0.74 0.06 0  0.76 0.06 0  0.78 0.06 0  0.8 0.06 0  0.82 0.06 0  0.84 0.06 0  0.86 0.06 0  0.88 0.06 0  0.9 0.06 0  0.92 0.06 0  0.9399999999999999 0.06 0  0.96 0.06 0  0.98 0.06 0  1 0.06 0  1.02 0.06 0  1.04 0.06 0  1.06 0.06 0  1.08 0.06 0  1.1 0.06 0  1.12 0.06 0  1.14 0.06 0  1.16 0.06 0  1.18 0.06 0  1.2 0.06 0  1.22 0.06 0  1.24 0.06 0  1.26 0.06 0  1.28 0.06 0  1.3 0.06 0  1.32 0.06 0  1.34 0.06 0  1.36 0.06 0  1.38 0.06 0  1.4 0.06 0  1.42 0.06 0  1.44 0.06 0  1.46 0.06 0  1.48 0.06 0  1.5 0.06 0  1.52 0.06 0  1.54 0.06 0  1.56 0.06 0  1.58 0.06 0  1.6 0.06 0  1.62 0.06 0  1.64 0.06 0  1.66 0.06 0  1.68 0.06 0  1.7 0.06 0  1.72 0.06 0  1.74 0.06 0  1.76 0.06 0  1.78 0.06 0  1.8 0.06 0  1.82 0.06 0  1.84 0.06 0  1.86 0.06 0  1.88 0.06 0  1.9 0.06 0  1.92 0.06 0  1.94 0.06 0  1.96 0.06 0  1.98 0.06 0  2 0.06 0  0 0.08 0  0.02 0.08 0  0.04 0.08 0  0.06 0.08 0  0.08 0.08 0  0.1 0.08 0  0.12 0.08 0  0.14 0.08 0  0.16 0.08 0  0.18 0.08 0  0.2 0.08 0  0.22 0.08 0  0.24 0.08 0  0.26 0.08 0  0.28 0.08 0  0.3 0.08 0  0.32 0.08 0  0.34 0.08 0  0.36 0.08 0  0.38 0.08 0  0.4 0.08 0  0.42 0.08 0  0.44 0.08 0  0.46 0.08 0  0.48 0.08 0  0.5 0.08 0  0.52 0.08 0  0.54 0.08 0  0.5600000000000001 0.08 0  0.58 0.08 0  0.6 0.08 0  0.62 0.08 0  0.64 0.08 0  0.66 0.08 0  0.68 0.08 0  0.7 0.08 0  0.72 0.08 0  0.74 0.08 0  0.76 0.08 0  0.78 0.08 0  0.8 0.08 0  0.82 0.08 0  0.84 0.08 0  0.86 0.08 0  0.88 0.08 0  0.9 0.08 0  0.92 0.08 0  0.9399999999999999 0.08 0  0.96 0.08 0  0.98 0.08 0  1 0.08 0  1.02 0.08 0  1.04 0.08 0  1.06 0.08 0  1.08 0.08 0  1.1 0.08 0  1.12 0.08 0  1.14 0.08 0  1.16 0.08 0  1.18 0.08 0  1.2 0.08 0  1.22 0.08 0  1.24 0.08 0  1.26 0.08 0  1.28 0.08 0  1.3 0.08 0  1.32 0.08 0  1.34 0.08 0  1.36 0.08 0  1.38 0.08 0  1.4 0.08 0  1.42 0.08 0  1.44 0.08 0  1.46 0.08 0  1.48 0.08 0  1.5 0.08 0  1.52 0.08 0  1.54 0.08 0  1.56 0.08 0  1.58 0.08 0  1.6 0.08 0  1.62 0.08 0  1.64 0.08 0  1.66 0.08 0  1.68 0.08 0  1.7 0.08 0  1.72 0.08 0  1.74 0.08 0  1.76 0.08 0  1.78 0.08 0  1.8 0.08 0  1.82 0.08 0  1.84 0.08 0  1.86 0.08 0  1.88 0.08 0  1.9 0.08 0  1.92 0.08 0  1.94 0.08 0  1.96 0.08 0  1.98 0.08 0  2 0.08 0  0 0.1 0  0.02 0.1 0  0.04 0.1 0  0.06 0.1 0  0.08 0.1 0  0.1 0.1 0  0.12 0.1 0  0.14 0.1 0  0.16 0.1 0  0.18 0.1 0  0.2 0.1 0  0.22 0.1 0  0.24 0.1 0  0.26 0.1 0  0.28 0.1 0  0.3 0.1 0  0.32 0.1 0  0.34 0.1 0  0.36 0.1 0  0.38 0.1 0  0.4 0.1 0  0.42 0.1 0  0.44 0.1 0  0.46 0.1 0  0.48 0.1 0  0.5 0.1 0  0.52 0.1 0  0.54 0.1 0  0.5600000000000001 0.1 0  0.58 0.1 0  0.6 0.1 0  0.62 0.1 0  0.64 0.1 0  0.66 0.1 0  0.68 0.1 0  0.7 0.1 0  0.72 0.1 0  0.74 0.1 0  0.76 0.1 0  0.78 0.1 0  0.8 0.1 0  0.82 0.1 0  0.84 0.1 0  0.86 0.1 0  0.88 0.1 0  0.9 0.1 0  0.92 0.1 0  0.9399999999999999 0.1 0  0.96 0.1 0  0.98 0.1 0  1 0.1 0  1.02 0.1 0  1.04 0.1 0  1.06 0.1 0  1.08 0.1 0  1.1 0.1 0  1.12 0.1 0  1.14 0.1 0  1.16 0.1 0  1.18 0.1 0  1.2 0.1 0  1.22 0.1 0  1.24 0.1 0  1.26 0.1 0  1.28 0.1 0  1.3 0.1 0  1.32 0.1 0  1.34 0.1 0  1.36 0.1 0  1.38 0.1 0  1.4 0.1 0  1.42 0.1 0  1.44 0.1 0  1.46 0.1 0  1.48 0.1 0  1.5 0.1 0  1.52 0.1 0  1.54 0.1 0  1.56 0.1 0  1.58 0.1 0  1.6 0.1 0  1.62 0.1 0  1.64 0.1 0  1.66 0.1 0  1.68 0.1 0  1.7 0.1 0  1.72 0.1 0  1.74 0.1 0  1.76 0.1 0  1.78 0.1 0  1.8 0.1 0  1.82 0.1 0  1.84 0.1 0  1.86 0.1 0  1.88 0.1 0  1.9 0.1 0  1.92 0.1 0  1.94 0.1 0  1.96 0.1 0  1.98 0.1 0  2 0.1 0  0 0.12 0  0.02 0.12 0  0.04 0.12 0  0.06 0.12 0  0.08 0.12 0  0.1 0.12 0  0.12 0.12 0  0.14 0.12 0  0.16 0.12 0  0.18 0.12 0  0.2 0.12 0  0.22 0.12 0  0.24 0.12 0  0.26 0.12 0  0.28 0.12 0  0.3 0.12 0  0.32 0.12 0  0.34 0.12 0  0.36 0.12 0  0.38 0.12 0  0.4 0.12 0  0.42 0.12 0  0.44 0.12 0  0.46 0.12 0  0.48 0.12 0  0.5 0.12 0  0.52 0.12 0  0.54 0.12 0  0.5600000000000001 0.12 0  0.58 0.12 0  0.6 0.12 0  0.62 0.12 0  0.64 0.12 0  0.66 0.12 0  0.68 0.12 0  0.7 0.12 0  0.72 0.12 0  0.74 0.12 0  0.76 0.12 0  0.78 0.12 0  0.8 0.12 0  0.82 0.12 0  0.84 0.12 0  0.86 0.12 0  0.88 0.12 0  0.9 0.12 0  0.92 0.12 0  0.9399999999999999 0.12 0  0.96 0.12 0  0.98 0.12 0  1 0.12 0  1.02 0.12 0  1.04 0.12 0  1.06 0.12 0  1.08 0.12 0  1.1 0.12 0  1.12 0.12 0  1.14 0.12 0  1.16 0.12 0  1.18 0.12 0  1.2 0.12 0  1.22 0.12 0  1.24 0.12 0  1.26 0.12 0  1.28 0.12 0  1.3 0.12 0  1.32 0.12 0  1.34 0.12 0  1.36 0.12 0  1.38 0.12 0  1.4 0.12 0  1.42 0.12 0  1.44 0.12 0  1.46 0.12 0  1.48 0.12 0  1.5 0.12 0  1.52 0.12 0  1.54 0.12 0  1.56 0.12 0  1.58 0.12 0  1.6 0.12 0  1.62 0.12 0  1.64 0.12 0  1.66 0.12 0  1.68 0.12 0  1.7 0.12 0  1.72 0.12 0  1.74 0.12 0  1.76 0.12 0  1.78 0.12 0  1.8 0.12 0  1.82 0.12 0  1.84 0.12 0  1.86 0.12 0  1.88 0.12 0  1.9 0.12 0  1.92 0.12 0  1.94 0.12 0  1.96 0.12 0  1.98 0.12 0  2 0.12 0  0 0.14 0  0.02 0.14 0  0.04 0.14 0  0.06 0.14 0  0.08 0.14 0  0.1 0.14 0  0.12 0.14 0  0.14 0.14 0  0.16 0.14 0  0.18 0.14 0  0.2 0.14 0  0.22 0.14 0  0.24 0.14 0  0.26 0.14 0  0.28 0.14 0  0.3 0.14 0  0.32 0.14 0  0.34 0.14 0  0.36 0.14 0  0.38 0.14 0  0.4 0.14 0  0.42 0.14 0  0.44 0.14 0  0.46 0.14 0  0.48 0.14 0  0.5 0.14 0  0.52 0.14 0  0.54 0.14 0  0.5600000000000001 0.14 0  0.58 0.14 0  0.6 0.14 0  0.62 0.14 0  0.64 0.14 0  0.66 0.14 0  0.68 0.14 0  0.7 0.14 0  0.72 0.14 0  0.74 0.14 0  0.76 0.14 0  0.78 0.14 0  0.8 0.14 0  0.82 0.14 0  0.84 0.14 0  0.86 0.14 0  0.88 0.14 0  0.9 0.14 0  0.92 0.14 0  0.9399999999999999 0.14 0  0.96 0.14 0  0.98 0.14 0  1 0.14 0  1.02 0.14 0  1.04 0.14 0  1.06 0.14 0  1.08 0.14 0  1.1 0.14 0  1.12 0.14 0  1.14 0.14 0  1.16 0.14 0  1.18 0.14 0  1.2 0.14 0  1.22 0.14 0  1.24 0.14 0  1.26 0.14 0  1.28 0.14 0  1.3 0.14 0  1.32 0.14 0  1.34 0.14 0  1.36 0.14 0  1.38 0.14 0  1.4 0.14 0  1.42 0.14 0  1.44 0.14 0  1.46 0.14 0  1.48 0.14 0  1
[...]
<PointData  Scalars="sols[i]"> 
<DataArray  type="Float64"  Name="sols[i]"  format="ascii">8.3263834377709134e-04  5.5524784426824953e-04  5.5524784438604050e-04  5.5524784462726822e-04  5.5524784509032989e-04  5.5524784595658693e-04  5.5524784755272443e-04  5.5524785045745937e-04  5.5524785568145606e-04  5.5524786496668522e-04  5.5524788127968056e-04  5.5524790962062798e-04  5.5524795835386830e-04  5.5524804141918454e-04  5.5524818207327924e-04  5.5524841935684151e-04  5.5524881948097206e-04  5.5524949605212132e-04  5.5525064578556519e-04  5.5525261012131578e-04  5.5525597715473673e-04  5.5526173991801546e-04  5.5527152070391150e-04  5.5528784784302215e-04  5.5531442136007314e-04  5.5535622524403329e-04  5.5541925852754727e-04  5.5550962850211421e-04  5.5563188039713606e-04  5.5578680653415680e-04  5.5596948183127628e-04  5.5616849832593011e-04  5.5636705181715863e-04  5.5654590182115733e-04  5.5668733020696121e-04  5.5677847831665903e-04  5.5681281796743029e-04  5.5678997508909977e-04  5.5671512255532098e-04  5.5659826561786630e-04  5.5645275321787244e-04  5.5629298466764300e-04  5.5613204271072816e-04  5.5598004340914886e-04  5.5584349966848897e-04  5.5572556475380543e-04  5.5562678313591997e-04  5.5554597846523847e-04  5.5548104386794652e-04  5.5542953332521935e-04  5.5538904084723249e-04  5.5535740334750712e-04  5.5533278071552821e-04  5.5531366239424122e-04  5.5529883684133350e-04  5.5528734693802465e-04  5.5527844389419568e-04  5.5527154540817661e-04  5.5526620014096186e-04  5.5526205872178259e-04  5.5525885067651544e-04  5.5525636639610330e-04  5.5525444322881436e-04  5.5525295483748274e-04  5.5525180306834705e-04  5.5525091171070376e-04  5.5525022166681877e-04  5.5524968718090241e-04  5.5524927287905579e-04  5.5524895144404719e-04  5.5524870179489937e-04  5.5524850766964682e-04  5.5524835652846804e-04  5.5524823870820440e-04  5.5524814677098550e-04  5.5524807500027741e-04  5.5524801900753453e-04  5.5524797542190409e-04  5.5524794164384605e-04  5.5524791565046542e-04  5.5524789584507751e-04  5.5524788094568297e-04  5.5524786990689449e-04  5.5524786186866978e-04  5.5524785612396179e-04  5.5524785209770352e-04  5.5524784933095141e-04  5.5524784746630994e-04  5.5524784623302975e-04  5.5524784543178158e-04  5.5524784491989396e-04  5.5524784459795508e-04  5.5524784439840897e-04  5.5524784427639601e-04  5.5524784420273238e-04  5.5524784415881623e-04  5.5524784413299921e-04  5.5524784411813165e-04  5.5524784410996013e-04  5.5524784410612791e-04  1.6638228356579022e-03  5.5524784425636895e-04  2.7769747256785744e-04  2.7769747263103395e-04  2.7769747276361079e-04  2.7769747302088563e-04  2.7769747350618731e-04  2.7769747440734423e-04  2.7769747605977502e-04  2.7769747905356557e-04  2.7769748441231807e-04  2.7769749388804638e-04  2.7769751044328853e-04  2.7769753903783350e-04  2.7769758792157588e-04  2.7769767079513410e-04  2.7769781050984016e-04  2.7769804556972670e-04  2.7769844177534048e-04  2.7769911317044021e-04  2.7770025919716132e-04  2.7770222837283047e-04  2.7770562145403135e-04  2.7771144532340606e-04  2.7772131603805551e-04  2.7773767676760128e-04  2.7776393802924493e-04  2.7780437344086784e-04  2.7786355699216343e-04  2.7794519330228356e-04  2.7805046190161397e-04  2.7817643252595916e-04  2.7831533566341797e-04  2.7845522470720054e-04  2.7858213248205547e-04  2.7868311894071150e-04  2.7874886350060288e-04  2.7877468812082667e-04  2.7876022385998938e-04  2.7870894737187687e-04  2.7862785343231726e-04  2.7852646774396999e-04  2.7841513351247122e-04  2.7830321071608958e-04  2.7819785458951498e-04  2.7810357779901916e-04  2.7802247389941570e-04  2.7795479895076467e-04  2.7789962754651076e-04  2.7785541888549452e-04  2.7782042996958350e-04  2.7779297302004628e-04  2.7777154735939051e-04  2.7775488672539608e-04  2.7774195781128230e-04  2.7773193536293807e-04  2.7772416935516360e-04  2.7771815229256732e-04  2.7771349007369469e-04  2.7770987751689883e-04  2.7770707852190971e-04  2.7770491035230215e-04  2.7770323139058786e-04  2.7770193172152967e-04  2.7770092594516909e-04  2.7770014769620333e-04  2.7769954544031321e-04  2.7769907921766450e-04  2.7769871809592164e-04  2.7769843816740627e-04  2.7769822097396612e-04  2.7769805227344284e-04  2.7769792107988427e-04  2.7769781892154444e-04  2.7769773926976111e-04  2.7769767709954769e-04  2.7769762854990530e-04  2.7769759065856360e-04  2.7769756115225962e-04  2.7769753827957058e-04  2.7769752067826459e-04  2.7769750727252350e-04  2.7769749719687317e-04  2.7769748974339702e-04  2.7769748432768281e-04  2.7769748046793083e-04  2.7769747777168439e-04  2.7769747592577051e-04  2.7769747468672020e-04  2.7769747387064686e-04  2.7769747334271592e-04  2.7769747300687340e-04  2.7769747279653243e-04  2.7769747266668247e-04  2.7769747258759041e-04  2.7769747254001567e-04  2.7769747251174662e-04  2.7769747249517285e-04  2.7769747248563626e-04  2.7769747248036325e-04  2.7769747247778989e-04  5.5524784410608725e-04  5.5524784433419135e-04  2.7769747261294540e-04  2.7769747270939266e-04  2.7769747291376477e-04  2.7769747331462760e-04  2.7769747407976474e-04  2.7769747551808707e-04  2.7769747818815605e-04  2.7769748308420424e-04  2.7769749194891166e-04  2.7769750779015881e-04  2.7769753572234006e-04  2.7769758432353718e-04  2.7769766782474676e-04  2.7769780968715828e-04  2.7769804860912112e-04  2.7769844899651873e-04  2.7769911989324367e-04  2.7770025000732596e-04  2.7770217257757051e-04  2.7770548264215622e-04  2.7771123887190569e-04  2.7772128555583764e-04  2.7773871210927712e-04  2.7776840288270578e-04  2.7781749433279700e-04  2.7789535406727166e-04  2.7801251329138765e-04  2.7817804965759246e-04  2.7839556245133065e-04  2.7865917654973789e-04  2.7895167041172417e-04  2.7924597668989960e-04  2.7951048151996888e-04  2.7971674960400870e-04  2.7984576028584863e-04  2.7988937681767631e-04  2.7984819673046522e-04  2.7973040996731921e-04  2.7955194390784946e-04  2.7933431808953443e-04  2.7910032830291167e-04  2.7886972738302702e-04  2.7865672048811861e-04  2.7846942787654463e-04  2.7831082102091476e-04  2.7818027159770759e-04  2.7807505183910676e-04  2.7799150746064729e-04  2.7792584621826733e-04  2.7787458048706646e-04  2.7783471629831431e-04  2.7780378947066508e-04  2.7777982427501106e-04  2.7776126184847721e-04  2.7774688440774077e-04  2.7773574647631081e-04  2.7772711651493585e-04  2.7772042930156816e-04  2.7771524806155003e-04  2.7771123483095333e-04  2.7770812758231910e-04  2.7770572278189347e-04  2.7770386216512951e-04  2.7770242268619508e-04  2.7770130880302784e-04  2.7770044647321140e-04  2.7769977843012094e-04  2.7769926045137971e-04  2.7769885841874374e-04  2.7769854601762597e-04  2.7769830295233476e-04  2.7769811357158513e-04  2.7769796581444983e-04  2.7769785040146358e-04  2.7769776020936294e-04  2.7769768978108884e-04  2.7769763493551051e-04  2.7769759245347726e-04  2.7769755982704348e-04  2.7769753506546078e-04  2.7769751655379397e-04  2.7769750295824605e-04  2.7769749316864035e-04  2.7769748626574748e-04  2.7769748150131612e-04  2.7769747828164929e-04  2.7769747614977746e-04  2.7769747476510872e-04  2.7769747388174974e-04  2.7769747332745821e-04  2.7769747298489667e-04  2.7769747277612037e-04  2.7769747265050894e-04  2.7769747257583760e-04  2.7769747253196552e-04  2.7769747250651865e-04  2.7769747249202476e-04  2.7769747248408715e-04  2.7769747248025352e-04  5.5524784410973353e-04  5.5524784447828995e-04  2.7769747269872568e-04  2.7769747285996893e-04  2.7769747320483532e-04  2.7769747388938480e-04  2.7769747521308414e-04  2.7769747773501619e-04  2.7769748248032829e-04  2.7769749129859581e-04  2.7769750747256693e-04  2.7769753673026487e-04  2.7769758889346972e-04  2.7769768051652766e-04  2.7769783906834864e-04  2.7769810958281510e-04  2.7769856548280657e-04  2.7769932699729731e-04  2.7770059430095082e-04  2.7770271007357725e-04  2.7770628026075684e-04  2.7771240482940513e-04  2.7772310091273272e-04  2.7774202613905098e-04  2.7777559404201031e-04  2.7783444742168881e-04  2.7793493003696175e-04  2.7809962788119996e-04  2.7835538683739609e-04  2.7872705194215998e-04  2.7922668820910341e-04  2.7984231005018982e-04  2.8053235910198437e-04  2.8122883102793577e-04  2.8185118152944768e-04  2.8232840787277937e-04  2.8261661945447124e-04  2.8270068166219505e-04  2.8258437001688888e-04  2.8228779565885455e-04  2.8185127263483160e-04  2.8132960257652343e-04  2.8077940838980173e-04  2.8024740421151578e-04  2.7976495485660963e-04  2.7934790876907382e-04  2.7900002236531355e-04  2.7871734229795408e-04  2.7849190629725931e-04  2.7831438189569442e-04  2.7817570697709175e-04  2.7806789946962785e-04  2.7798430980995953e-04  2.7791957987869157e-04  2.7786947657150912e-04  2.7783069264105921e-04  2.7780066127149023e-04  2.7777739844145593e-04  2.7775937350886363e-04  2.7774540586272633e-04  2.7773458395739239e-04  2.7772620250580006e-04  2.7771971436676984e-04  2.7771469415798265e-04  2.7771081084468791e-04  2.7770780696519158e-04  2.7770548265420073e-04  2.7770368313491915e-04  2.7770228881327116e-04  2.7770120742029984e-04  2.7770036781495468e-04  2.7769971514380492e-04  2.7769920709938101e-04  2.7769881105069795e-04  2.7769850185112353e-04  2.7769826016040260e-04  2.7769807114759156e-04  2.7769792347042874e-04  2.7769780845549724e-04  2.7769771943171216e-04  2.7769765119375819e-04  2.7769759958748365e-04  2.7769756121291840e-04  2.7769753323362569e-04  2.7769751326955775e-04  2.7769749934263802e-04  2.7769748984515639e-04  2.7769748350975186e-04  2.7769747937123334e-04  2.7769747671996860e-04  2.7769747505158800e-04  2.7769747401866588e-04  2.7769747338854899e-04  2.7769747300929583e-04  2.7769747278383902e-04  2.7769747265135071e-04  2.7769747257436775e-04  2.7769747253018575e-04  2.7769747250526997e-04  2.7769747249174596e-04  2.7769747248526568e-04  5.5524784411745977e-04  5.5524784472453558e-04  2.7769747284725471e-04  2.7769747312345939e-04  2.7769747371998645e-04  2.7769747491814488e-04  2.7769747726493339e-04  2.7769748179615411e-04  2.7769749043884853e-04  2.7769750672032622e-04  2.7769753698892808e-04  2.7769759246570343e-04  2.7769769260684003e-04  2.7769787047952422e-04  2.7769818117865947e-04  2.7769871486460766e-04  2.7769961715735534e-04  2.7770112236239137e-04  2.7770361158961296e-04  2.7770772279331893e-04  2.7771457077255637e-04  2.7772619205826551e-04  2.7774641766501704e-04  2.7778247782560717e-04  2.7784767993138811e-04  2.7796529550767017e-04  2.7817306213093006e-04  2.7852619221795945e-04  2.7909457463664672e-04  2.7994827216162876e-04  2.8112812182976737e-04  2.8261283948160317e-04  2.8430202170869615e-04  2.8601985018169754e-04  2.8755048693607726e-04  2.8870513338524284e-04  2.8937720614622884e-04  2.8954140641428150e-04  2.8921113156587527e-04  2.8843497831425541e-04  2.8732161910749004e-04  2.8601982015347632e-04  2.8467740248803839e-04  2.8340798859111550e-04  2.8228102686923872e-04  2.8132525902818645e-04  2.8054090203395965e-04  2.7991212411300736e-04  2.7941604179196290e-04  2.7902853144911417e-04  2.7872755252938833e-04  2.7849447656963652e-04  2.7831421682241993e-04  2.7817485048396115e-04  2.7806708096866456e-04  2.7798370489278188e-04  2.7791916180273859e-04  2.7786917035601931e-04  2.7783043590251288e-04  2.7780042096005200e-04  2.7777716780529662e-04  2.7775916164584274e-04  2.7774522651115389e-04  2.7773444726127101e-04  2.7772611121504792e-04  2.7771966400230529e-04  2.7771467550070656e-04  2.7771081295775978e-04  2.7770781955055917e-04  2.7770549732333041e-04  2.7770369373548504e-04  2.7770229118754641e-04  2.7770119896147890e-04  2.7770034706815143e-04  2.7769968156524365e-04  2.7769916098227120e-04  2.7769875355628996e-04  2.7769843504585584e-04  2.7769818695719473e-04  2.7769799508410613e-04  2.7769784832204096e-04  2.7769773775334424e-04  2.7769765600570883e-04  2.7769759686195703e-04  2.7769755506366407e-04  2.7769752622847386e-04  2.7769750680526207e-04  2.7769749401731228e-04  2.7769748577533384e-04  2.7769748056579422e-04  2.7769747733045330e-04  2.7769747535270927e-04  2.7769747416080549e-04  2.7769747345169330e-04  2.7769747303477800e-04  2.7769747279236259e-04  2.7769747265293522e-04  2.7769747257369381e-04  2.7769747252941711e-04  2.7769747250557957e-04  2.7769747249422678e-04  5.5524784413135762e-04  5.5524784512879228e-04  2.7769747309363391e-04  2.7769747356578108e-04  2.7769747459574045e-04  2.7769747668890632e-04  2.7769748084149784e-04  2.7769748896772740e-04  2.7769750468332463e-04  2.7769753470964514e-04  2.7769759133147552e-04  2.7769769659049290e-04  2.7769788924083861e-04  2.7769823593975704e-04  2.7769884870364263e-04  2.7769991142192639e-04  2.7770171964935155e-04  2.7770474156952707e-04  2.7770971828262344e-04  2.7771784851225582e-04  2.7773116632486000e-04  2.7775335220339833e-04  2.7779145186772460e-04  2.7785930929006127e-04  2.7798381123880447e-04  2.7821486976572059e-04  2.7863864513031278e-04  2.7938987021246036e-04  2.8065253582103104e-04  2.8263032191959842e-04  2.8546704599232710e-04  2.8914803209542075e-04  2.9344471645354533e-04  2.9789542168292486e-04  3.0188152484064224e-04  3.0484763565373458e-04  3.0650616078578606e-04  3.0682820560210260e-04  3.0585053892477322e-04  3.0368818938257856e-04  3.0067236983635998e-04  2.9724984150711890e-04  2.9383227512644848e-04  2.9069970582475173e-04  2.8799795856807649e-04  2.8576316949630091e-04  2.8396650127536716e-04  2.8254981679807009e-04  2.8144629747081954e-04  2.8059225121877470e-04  2.7993315792995276e-04  2.7942497354103637e-04  2.7903307735141681e-04  2.7873065956024164e-04  2.7849709959259795e-04  2.7831655101916690e-04  2.7817685116889371e-04  2.7806867775127477e-04  2.7798487825871293e-04  2.7791995387987218e-04  2.7786966701192343e-04  2.7783073939323215e-04  2.7780062430129765e-04  2.7777733819076483e-04  2.7775933555860725e-04  2.7774541445389105e-04  2.7773464323589550e-04  2.7772630218108804e-04  2.7771983655371763e-04  2.7771481920327350e-04  2.7771092114027671e-04  2.7770788873259238e-04  2.7770552625941332e-04  2.7770368266008565e-04  2.7770224148930740e-04  2.7770111326725239e-04  2.7770022956125247e-04  2.7769953827656347e-04  2.7769899978731299e-04  2.7769858370369459e-04  2.7769826621875667e-04  2.7769802806720421e-04  2.7769785313190283e-04  2.7769772765626552e-04  2.7769763991227772e-04  2.7769758011033670e-04  2.7769754035645048e-04  2.7769751454126412e-04  2.7769749813267002e-04  2.7769748790168561e-04  2.7769748163059173e-04  2.7769747784452055e-04  2.7769747558943733e-04  2.7769747426257180e-04  2.7769747349060852e-04  2.7769747304624408e-04  2.7769747279313508e-04  2.7769747265062776e-04  2.7769747257170717e-04  2.7769747252955203e-04  2.7769747250958477e-04  5.5524784415515271e-04  5.5524784577484440e-04  2.7769747349124299e-04  2.7769747428871988e-04  2.7769747604614172e-04  2.7769747966012947e-04  2.7769748692303128e-04  2.7769750133122830e-04  2.7769752959482945e-04  2.7769758439462447e-04  2.7769768930151157e-04  2.7769788732999429e-04  2.7769825537536414e-04  2.7769892776710907e-04  2.7770013325221897e-04  2.7770225074563867e-04  2.7770589032205696e-04  2.7771200901269575e-04  2.7772208309659492e-04  2.7773839983634391e-04  2.7776464862913034e-04  2.7780727342345909e-04  2.7787862558571817e-04  2.7800392998267841e-04  2.7823528476374697e-04  2.7867649634250356e-04  2.7952057354299842e-04  2.8109462333482740e-04  2.8389049103758046e-04  2.8853069455627589e-04  2.9556854181442954e-04  3.0519141719132387e-04  3.1702739858709958e-04  3.2988731362618872e-04  3.4175294230898379e-04  3.5058817770198327e-04  3.5535132934302682e-04  3.5605516733417362e-04  3.5275526875885638e-04  3.4572016981014418e-04  3.3628571888657334e-04  3.2613137599031745e-04  3.1655897809287046e-04  3.0823936350837957e-04  3.0139638858648618e-04  2.9595299754604950e-04  2.9170976690464756e-04  2.8844382188717707e-04  2.8594591066962360e-04  2.8403770526094432e-04  2.8257835358939877e-04  2.8146026876502920e-04  2.8060186251114205e-04  2.7994153002700977e-04  2.7943271902279045e-04  2.7904003247194211e-04  2.7873652621755626e-04  2.7850169830093802e-04  2.7831989196134264e-04  2.7817910745772624e-04  2.7807012001979553e-04  2.7798580009571469e-04  2.7792060745043644e-04  2.7787022533850582e-04  2.7783129040475442e-04  2.7780118912566038e-04  2.7777789921027817e-04  2.7775986145108867e-04  2.7774587606100540e-04  2.7773502021297451e-04  2.7772658345425773e-04  2.7772001797973496e-04  2.7771490086228530e-04  2.7771090551405899e-04  2.7770778013658644e-04  2.7770533135644803e-04  2.7770341155815644e-04  2.7770190872877641e-04  2.7770073798508637e-04  2.7769983436397625e-04  2.7769914683261476e-04  2.7769863369704736e-04  2.7769825957471361e-04  2.7769799385359830e-04  2.7769781023134261e-04  2.7769768675193888e-04  2.7769760583866145e-04  2.7769755406299458e-04  2.7769752162850285e-04  2.7769750168586742e-04  2.7769748962206818e-04  2.7769748242776802e-04  2.7769747819145484e-04  2.7769747572546351e-04  2.7769747430528519e-04  2.7769747349574861e-04  2.7769747303900844e-04  2.7769747278422912e-04  2.7769747264438411e-04  2.7769747257027857e-04  2.7769747253536699e-04  5.5524784419497676e-04  5.5524784678379405e-04  2.7769747411823922e-04  2.7769747544361805e-04  2.7769747839454781e-04  2.7769748453550973e-04  2.7769749703904749e-04  2.7769752219088757e-04  2.7769757225540548e-04  2.7769767081603524e-04  2.7769786251027732e-04  2.7769823033343451e-04  2.7769892549804777e-04  2.7770021717658084e-04  2.7770257194857905e-04  2.7770677447875583e-04  2.7771410051961420e-04  2.7772655081657600e-04  2.7774715796134779e-04  2.7778042140541619e-04  2.7783310586290531e-04  2.7791617839375155e-04  2.7804996900146120e-04  2.7827724902886595e-04  2.7869300096014255e-04  2.7950386116352754e-04  2.8113068551547532e-04  2.8436174325172033e-04  2.9054260497849191e-04  3.0173662571303156e-04  3.2042560453440316e-04  3.4882726636151668e-04  3.8848112440163888e-04  4.3816562493863753e-04  4.9024462821659065e-04  5.3193945233162348e-04  5.5445978873965203e-04  5.5745277754887701e-04  5.4026880407511725e-04  5.0391244514787670e-04  4.5909855982258295e-04  4.1681017724976959e-04  3.8215191957028798e-04  3.5542742788104083e-04  3.3551442238559463e-04  3.2083935246688696e-04  3.1003906969427869e-04  3.0208068283783725e-04  2.9618676127025542e-04  2.9178540286659460e-04  2.8847325501226643e-04  2.8596548618216652e-04  2.8405671566215587e-04  2.8259775208565676e-04  2.8147904981464623e-04  2.8061877731187665e-04  2.7995560549735736e-04  2.7944351421213456e-04  2.7904766040818770e-04  2.7874150671261988e-04  2.7850476772505638e-04  2.7832181035716011e-04  2.7818049708925859e-04  2.7807137963477551e-04  2.7798710535594889e-04  2.7792197226520182e-04  2.7787158118394619e-04  2.7783254983044896e-04  2.7780228096327376e-04  2.7777877943755081e-04  2.7776050988972603e-04  2.7774628813502478e-04  2.7773519943152358e-04  2.7772653702546392e-04  2.7771975591921037e-04  2.7771443789659272e-04  2.7771026444683701e-04  2.7770699486150683e-04  2.7770444760963825e-04  2.7770248413622086e-04  2.7770099520784043e-04  2.7769989049602990e-04  2.7769909200981964e-04  2.7769853124507608e-04  2.7769814891083906e-04  2.7769789561545808e-04  2.7769773221831016e-04  2.7769762929158790e-04  2.7769756578437414e-04  2.7769752728856311e-04  2.7769750430557764e-04  2.7769749076386226e-04  2.7769748287809112e-04  2.7769747833520416e-04  2.7769747574473157e-04  2.7769747428225348e-04  2.7769747346492263e-04  2.7769747301325908e-04  2.7769747276759589e-04  2.7769747263848215e-04  2.7769747257799728e-04  5.5524784426057186e-04  5.5524784832427089e-04  2.7769747508488753e-04  2.7769747724734525e-04  2.7769748211189954e-04  2.7769749235673197e-04  2.7769751349222675e-04  2.7769755661039675e-04  2.7769764372417182e-04  2.7769781793372653e-04  2.7769816238889687e-04  2.7769883482825492e-04  2.7770012873485505e-04  2.7770257795833056e-04  2.7770712823182048e-04  2.7771540361854293e-04  2.7773009266644923e-04  2.7775545960801015e-04  2.7779794867044053e-04  2.7786683314104540e-04  2.7797503452289422e-04  2.7814109252642552e-04  2.78395920253