<?xml version="1.0"?>
<VTKFile type="UnstructuredGrid"  version="0.1"  >
<UnstructuredGrid>
<Piece  NumberOfPoints="5151" NumberOfCells="10000">
<Points>
<DataArray  type="Float64"  NumberOfComponents="3"  format="ascii">0 0 0  0.02 0 0  0.04 0 0  0.06 0 0  0.08 0 0  0.1 0 0  0.12 0 0  0.14 0 0  0.16 0 0  0.18 0 0  0.2 0 0  0.22 0 0  0.24 0 0  0.26 0 0  0.28 0 0  0.3 0 0  0.32 0 0  0.34 0 0  0.36 0 0  0.38 0 0  0.4 0 0  0.42 0 0  0.44 0 0  0.46 0 0  0.48 0 0  0.5 0 0  0.52 0 0  0.54 0 0  0.5600000000000001 0 0  0.58 0 0  0.6 0 0  0.62 0 0  0.64 0 0  0.66 0 0  0.68 0 0  0.7 0 0  0.72 0 0  0.74 0 0  0.76 0 0  0.78 0 0  0.8 0 0  0.82 0 0  0.84 0 0  0.86 0 0  0.88 0 0  0.9 0 0  0.92 0 0  0.9399999999999999 0 0  0.96 0 0  0.98 0 0  1 0 0  1.02 0 0  1.04 0 0  1.06 0 0  1.08 0 0  1.1 0 0  1.12 0 0  1.14 0 0  1.16 0 0  1.18 0 0  1.2 0 0  1.22 0 0  1.24 0 0  1.26 0 0  1.28 0 0  1.3 0 0  1.32 0 0  1.34 0 0  1.36 0 0  1.38 0 0  1.4 0 0  1.42 0 0  1.44 0 0  1.46 0 0  1.48 0 0  1.5 0 0  1.52 0 0  1.54 0 0  1.56 0 0  1.58 0 0  1.6 0 0  1.62 0 0  1.64 0 0  1.66 0 0  1.68 0 0  1.7 0 0  1.72 0 0  1.74 0 0  1.76 0 0  1.78 0 0  1.8 0 0  1.82 0 0  1.84 0 0  1.86 0 0  1.88 0 0  1.9 0 0  1.92 0 0  1.94 0 0  1.96 0 0  1.98 0 0  2 0 0  0 0.02 0  0.02 0.02 0  0.04 0.02 0  0.06 0.02 0  0.08 0.02 0  0.1 0.02 0  0.12 0.02 0  0.14 0.02 0  0.16 0.02 0  0.18 0.02 0  0.2 0.02 0  0.22 0.02 0  0.24 0.02 0  0.26 0.02 0  0.28 0.02 0  0.3 0.02 0  0.32 0.02 0  0.34 0.02 0  0.36 0.02 0  0.38 0.02 0  0.4 0.02 0  0.42 0.02 0  0.44 0.02 0  0.46 0.02 0  0.48 0.02 0  0.5 0.02 0  0.52 0.02 0  0.54 0.02 0  0.5600000000000001 0.02 0  0.58 0.02 0  0.6 0.02 0  0.62 0.02 0  0.64 0.02 0  0.66 0.02 0  0.68 0.02 0  0.7 0.02 0  0.72 0.02 0  0.74 0.02 0  0.76 0.02 0  0.78 0.02 0  0.8 0.02 0  0.82 0.02 0  0.84 0.02 0  0.86 0.02 0  0.88 0.02 0  0.9 0.02 0  0.92 0.02 0  0.9399999999999999 0.02 0  0.96 0.02 0  0.98 0.02 0  1 0.02 0  1.02 0.02 0  1.04 0.02 0  1.06 0.02 0  1.08 0.02 0  1.1 0.02 0  1.12 0.02 0  1.14 0.02 0  1.16 0.02 0  1.18 0.02 0  1.2 0.02 0  1.22 0.02 0  1.24 0.02 0  1.26 0.02 0  1.28 0.02 0  1.3 0.02 0  1.32 0.02 0  1.34 0.02 0  1.36 0.02 0  1.38 0.02 0  1.4 0.02 0  1.42 0.02 0  1.44 0.02 0  1.46 0.02 0  1.48 0.02 0  1.5 0.02 0  1.52 0.02 0  1.54 0.02 0  1.56 0.02 0  1.58 0.02 0  1.6 0.02 0  1.62 0.02 0  1.64 0.02 0  1.66 0.02 0  1.68 0.02 0  1.7 0.02 0  1.72 0.02 0  1.74 0.02 0  1.76 0.02 0  1.78 0.02 0  1.8 0.02 0  1.82 0.02 0  1.84 0.02 0  1.86 0.02 0  1.88 0.02 0  1.9 0.02 0  1.92 0.02 0  1.94 0.02 0  1.96 0.02 0  1.98 0.02 0  2 0.02 0  0 0.04 0  0.02 0.04 0  0.04 0.04 0  0.06 0.04 0  0.08 0.04 0  0.1 0.04 0  0.12 0.04 0  0.14 0.04 0  0.16 0.04 0  0.18 0.04 0  0.2 0.04 0  0.22 0.04 0  0.24 0.04 0  0.26 0.04 0  0.28 0.04 0  0.3 0.04 0  0.32 0.04 0  0.34 0.04 0  0.36 0.04 0  0.38 0.04 0  0.4 0.04 0  0.42 0.04 0  0.44 0.04 0  0.46 0.04 0  0.48 0.04 0  0.5 0.04 0  0.52 0.04 0  0.54 0.04 0  0.5600000000000001 0.04 0  0.58 0.04 0  0.6 0.04 0  0.62 0.04 0  0.64 0.04 0  0.66 0.04 0  0.68 0.04 0  0.7 0.04 0  0.72 0.04 0  0.74 0.04 0  0.76 0.04 0  0.78 0.04 0  0.8 0.04 0  0.82 0.04 0  0.84 0.04 0  0.86 0.04 0  0.88 0.04 0  0.9 0.04 0  0.92 0.04 0  0.9399999999999999 0.04 0  0.96 0.04 0  0.98 0.04 0  1 0.04 0  1.02 0.04 0  1.04 0.04 0  1.06 0.04 0  1.08 0.04 0  1.1 0.04 0  1.12 0.04 0  1.14 0.04 0  1.16 0.04 0  1.18 0.04 0  1.2 0.04 0  1.22 0.04 0  1.24 0.04 0  1.26 0.04 0  1.28 0.04 0  1.3 0.04 0  1.32 0.04 0  1.34 0.04 0  1.36 0.04 0  1.38 0.04 0  1.4 0.04 0  1.42 0.04 0  1.44 0.04 0  1.46 0.04 0  1.48 0.04 0  1.5 0.04 0  1.52 0.04 0  1.54 0.04 0  1.56 0.04 0  1.58 0.04 0  1.6 0.04 0  1.62 0.04 0  1.64 0.04 0  1.66 0.04 0  1.68 0.04 0  1.7 0.04 0  1.72 0.04 0  1.74 0.04 0  1.76 0.04 0  1.78 0.04 0  1.8 0.04 0  1.82 0.04 0  1.84 0.04 0  1.86 0.04 0  1.88 0.04 0  1.9 0.04 0  1.92 0.04 0  1.94 0.04 0  1.96 0.04 0  1.98 0.04 0  2 0.04 0  0 0.06 0  0.02 0.06 0  0.04 0.06 0  0.06 0.06 0  0.08 0.06 0  0.1 0.06 0  0.12 0.06 0  0.14 0.06 0  0.16 0.06 0  0.18 0.06 0  0.2 0.06 0  0.22 0.06 0  0.24 0.06 0  0.26 0.06 0  0.28 0.06 0  0.3 0.06 0  0.32 0.06 0  0.34 0.06 0  0.36 0.06 0  0.38 0.06 0  0.4 0.06 0  0.42 0.06 0  0.44 0.06 0  0.46 0.06 0  0.48 0.06 0  0.5 0.06 0  0.52 0.06 0  0.54 0.06 0  0.5600000000000001 0.06 0  0.58 0.06 0  0.6 0.06 0  0.62 0.06 0  0.64 0.06 0  0.66 0.06 0  0.68 0.06 0  0.7 0.06 0  0.72 0.06 0  0.74 0.06 0  0.76 0.06 0  0.78 0.06 0  0.8 0.06 0  0.82 0.06 0  0.84 0.06 0  0.86 0.06 0  0.88 0.06 0  0.9 0.06 0  0.92 0.06 0  0.9399999999999999 0.06 0  0.96 0.06 0  0.98 0.06 0  1 0.06 0  1.02 0.06 0  1.04 0.06 0  1.06 0.06 0  1.08 0.06 0  1.1 0.06 0  1.12 0.06 0  1.14 0.06 0  1.16 0.06 0  1.18 0.06 0  1.2 0.06 0  1.22 0.06 0  1.24 0.06 0  1.26 0.06 0  1.28 0.06 0  1.3 0.06 0  1.32 0.06 0  1.34 0.06 0  1.36 0.06 0  1.38 0.06 0  1.4 0.06 0  1.42 0.06 0  1.44 0.06 0  1.46 0.06 0  1.48 0.06 0  1.5 0.06 0  1.52 0.06 0  1.54 0.06 0  1.56 0.06 0  1.58 0.06 0  1.6 0.06 0  1.62 0.06 0  1.64 0.06 0  1.66 0.06 0  1.68 0.06 0  1.7 0.06 0  1.72 0.06 0  1.74 0.06 0  1.76 0.06 0  1.78 0.06 0  1.8 0.06 0  1.82 0.06 0  1.84 0.06 0  1.86 0.06 0  1.88 0.06 0  1.9 0.06 0  1.92 0.06 0  1.94 0.06 0  1.96 0.06 0  1.98 0.06 0  2 0.06 0  0 0.08 0  0.02 0.08 0  0.04 0.08 0  0.06 0.08 0  0.08 0.08 0  0.1 0.08 0  0.12 0.08 0  0.14 0.08 0  0.16 0.08 0  0.18 0.08 0  0.2 0.08 0  0.22 0.08 0  0.24 0.08 0  0.26 0.08 0  0.28 0.08 0  0.3 0.08 0  0.32 0.08 0  0.34 0.08 0  0.36 0.08 0  0.38 0.08 0  0.4 0.08 0  0.42 0.08 0  0.44 0.08 0  0.46 0.08 0  0.48 0.08 0  0.5 0.08 0  0.52 0.08 0  0.54 0.08 0  0.5600000000000001 0.08 0  0.58 0.08 0  0.6 0.08 0  0.62 0.08 0  0.64 0.08 0  0.66 0.08 0  0.68 0.08 0  0.7 0.08 0  0.72 0.08 0  0.74 0.08 0  0.76 0.08 0  0.78 0.08 0  0.8 0.08 0  0.82 0.08 0  0.84 0.08 0  0.86 0.08 0  0.88 0.08 0  0.9 0.08 0  0.92 0.08 0  0.9399999999999999 0.08 0  0.96 0.08 0  0.98 0.08 0  1 0.08 0  1.02 0.08 0  1.04 0.08 0  1.06 0.08 0  1.08 0.08 0  1.1 0.08 0  1.12 0.08 0  1.14 0.08 0  1.16 0.08 0  1.18 0.08 0  1.2 0.08 0  1.22 0.08 0  1.24 0.08 0  1.26 0.08 0  1.28 0.08 0  1.3 0.08 0  1.32 0.08 0  1.34 0.08 0  1.36 0.08 0  1.38 0.08 0  1.4 0.08 0  1.42 0.08 0  1.44 0.08 0  1.46 0.08 0  1.48 0.08 0  1.5 0.08 0  1.52 0.08 0  1.54 0.08 0  1.56 0.08 0  1.58 0.08 0  1.6 0.08 0  1.62 0.08 0  1.64 0.08 0  1.66 0.08 0  1.68 0.08 0  1.7 0.08 0  1.72 0.08 0  1.74 0.08 0  1.76 0.08 0  1.78 0.08 0  1.8 0.08 0  1.82 0.08 0  1.84 0.08 0  1.86 0.08 0  1.88 0.08 0  1.9 0.08 0  1.92 0.08 0  1.94 0.08 0  1.96 0.08 0  1.98 0.08 0  2 0.08 0  0 0.1 0  0.02 0.1 0  0.04 0.1 0  0.06 0.1 0  0.08 0.1 0  0.1 0.1 0  0.12 0.1 0  0.14 0.1 0  0.16 0.1 0  0.18 0.1 0  0.2 0.1 0  0.22 0.1 0  0.24 0.1 0  0.26 0.1 0  0.28 0.1 0  0.3 0.1 0  0.32 0.1 0  0.34 0.1 0  0.36 0.1 0  0.38 0.1 0  0.4 0.1 0  0.42 0.1 0  0.44 0.1 0  0.46 0.1 0  0.48 0.1 0  0.5 0.1 0  0.52 0.1 0  0.54 0.1 0  0.5600000000000001 0.1 0  0.58 0.1 0  0.6 0.1 0  0.62 0.1 0  0.64 0.1 0  0.66 0.1 0  0.68 0.1 0  0.7 0.1 0  0.72 0.1 0  0.74 0.1 0  0.76 0.1 0  0.78 0.1 0  0.8 0.1 0  0.82 0.1 0  0.84 0.1 0  0.86 0.1 0  0.88 0.1 0  0.9 0.1 0  0.92 0.1 0  0.9399999999999999 0.1 0  0.96 0.1 0  0.98 0.1 0  1 0.1 0  1.02 0.1 0  1.04 0.1 0  1.06 0.1 0  1.08 0.1 0  1.1 0.1 0  1.12 0.1 0  1.14 0.1 0  1.16 0.1 0  1.18 0.1 0  1.2 0.1 0  1.22 0.1 0  1.24 0.1 0  1.26 0.1 0  1.28 0.1 0  1.3 0.1 0  1.32 0.1 0  1.34 0.1 0  1.36 0.1 0  1.38 0.1 0  1.4 0.1 0  1.42 0.1 0  1.44 0.1 0  1.46 0.1 0  1.48 0.1 0  1.5 0.1 0  1.52 0.1 0  1.54 0.1 0  1.56 0.1 0  1.58 0.1 0  1.6 0.1 0  1.62 0.1 0  1.64 0.1 0  1.66 0.1 0  1.68 0.1 0  1.7 0.1 0  1.72 0.1 0  1.74 0.1 0  1.76 0.1 0  1.78 0.1 0  1.8 0.1 0  1.82 0.1 0  1.84 0.1 0  1.86 0.1 0  1.88 0.1 0  1.9 0.1 0  1.92 0.1 0  1.94 0.1 0  1.96 0.1 0  1.98 0.1 0  2 0.1 0  0 0.12 0  0.02 0.12 0  0.04 0.12 0  0.06 0.12 0  0.08 0.12 0  0.1 0.12 0  0.12 0.12 0  0.14 0.12 0  0.16 0.12 0  0.18 0.12 0  0.2 0.12 0  0.22 0.12 0  0.24 0.12 0  0.26 0.12 0  0.28 0.12 0  0.3 0.12 0  0.32 0.12 0  0.34 0.12 0  0.36 0.12 0  0.38 0.12 0  0.4 0.12 0  0.42 0.12 0  0.44 0.12 0  0.46 0.12 0  0.48 0.12 0  0.5 0.12 0  0.52 0.12 0  0.54 0.12 0  0.5600000000000001 0.12 0  0.58 0.12 0  0.6 0.12 0  0.62 0.12 0  0.64 0.12 0  0.66 0.12 0  0.68 0.12 0  0.7 0.12 0  0.72 0.12 0  0.74 0.12 0  0.76 0.12 0  0.78 0.12 0  0.8 0.12 0  0.82 0.12 0  0.84 0.12 0  0.86 0.12 0  0.88 0.12 0  0.9 0.12 0  0.92 0.12 0  0.9399999999999999 0.12 0  0.96 0.12 0  0.98 0.12 0  1 0.12 0  1.02 0.12 0  1.04 0.12 0  1.06 0.12 0  1.08 0.12 0  1.1 0.12 0  1.12 0.12 0  1.14 0.12 0  1.16 0.12 0  1.18 0.12 0  1.2 0.12 0  1.22 0.12 0  1.24 0.12 0  1.26 0.12 0  1.28 0.12 0  1.3 0.12 0  1.32 0.12 0  1.34 0.12 0  1.36 0.12 0  1.38 0.12 0  1.4 0.12 0  1.42 0.12 0  1.44 0.12 0  1.46 0.12 0  1.48 0.12 0  1.5 0.12 0  1.52 0.12 0  1.54 0.12 0  1.56 0.12 0  1.58 0.12 0  1.6 0.12 0  1.62 0.12 0  1.64 0.12 0  1.66 0.12 0  1.68 0.12 0  1.7 0.12 0  1.72 0.12 0  1.74 0.12 0  1.76 0.12 0  1.78 0.12 0  1.8 0.12 0  1.82 0.12 0  1.84 0.12 0  1.86 0.12 0  1.88 0.12 0  1.9 0.12 0  1.92 0.12 0  1.94 0.12 0  1.96 0.12 0  1.98 0.12 0  2 0.12 0  0 0.14 0  0.02 0.14 0  0.04 0.14 0  0.06 0.14 0  0.08 0.14 0  0.1 0.14 0  0.12 0.14 0  0.14 0.14 0  0.16 0.14 0  0.18 0.14 0  0.2 0.14 0  0.22 0.14 0  0.24 0.14 0  0.26 0.14 0  0.28 0.14 0  0.3 0.14 0  0.32 0.14 0  0.34 0.14 0  0.36 0.14 0  0.38 0.14 0  0.4 0.14 0  0.42 0.14 0  0.44 0.14 0  0.46 0.14 0  0.48 0.14 0  0.5 0.14 0  0.52 0.14 0  0.54 0.14 0  0.5600000000000001 0.14 0  0.58 0.14 0  0.6 0.14 0  0.62 0.14 0  0.64 0.14 0  0.66 0.14 0  0.68 0.14 0  0.7 0.14 0  0.72 0.14 0  0.74 0.14 0  0.76 0.14 0  0.78 0.14 0  0.8 0.14 0  0.82 0.14 0  0.84 0.14 0  0.86 0.14 0  0.88 0.14 0  0.9 0.14 0  0.92 0.14 0  0.9399999999999999 0.14 0  0.96 0.14 0  0.98 0.14 0  1 0.14 0  1.02 0.14 0  1.04 0.14 0  1.06 0.14 0  1.08 0.14 0  1.1 0.14 0  1.12 0.14 0  1.14 0.14 0  1.16 0.14 0  1.18 0.14 0  1.2 0.14 0  1.22 0.14 0  1.24 0.14 0  1.26 0.14 0  1.28 0.14 0  1.3 0.14 0  1.32 0.14 0  1.34 0.14 0  1.36 0.14 0  1.38 0.14 0  1.4 0.14 0  1.42 0.14 0  1.44 0.14 0  1.46 0.14 0  1.48 0.14 0  1
[...]
<PointData  Scalars="sols[i]"> 
<DataArray  type="Float64"  Name="sols[i]"  format="ascii">3.2065763975057127e-01  2.6327194474177468e-01  2.6327705925426914e-01  2.6328725132533459e-01  2.6330522144332219e-01  2.6333549893945707e-01  2.6338425249590008e-01  2.6346316981406021e-01  2.6358284263858428e-01  2.6376125495972103e-01  2.6401854279093179e-01  2.6438973635882929e-01  2.6488984284801603e-01  2.6558083220284850e-01  2.6651878923801986e-01  2.6771170806707872e-01  2.6926879122636488e-01  2.7115995554674527e-01  2.7363928626758105e-01  2.7665978845853023e-01  2.8008711207790388e-01  2.8419799757083336e-01  2.8877955190730920e-01  2.9370619784121660e-01  2.9888326970209644e-01  3.0409488340880020e-01  3.0914249208143318e-01  3.1387214827963034e-01  3.1791291558062124e-01  3.2132331413632631e-01  3.2390465418690167e-01  3.2560482459332601e-01  3.2635476111936990e-01  3.2644362538619293e-01  3.2590330512745569e-01  3.2487585050571077e-01  3.2349078494760752e-01  3.2191106271969233e-01  3.2012794285427770e-01  3.1828612182553517e-01  3.1640023852735566e-01  3.1447302862666654e-01  3.1250795070651716e-01  3.1050666347247563e-01  3.0846277334748579e-01  3.0637970928315228e-01  3.0426099684476837e-01  3.0209962176115635e-01  2.9989722786822032e-01  2.9771356881325323e-01  2.9554567510707735e-01  2.9338286080022175e-01  2.9124691626628912e-01  2.8908508935960026e-01  2.8713305145022727e-01  2.8512999313990567e-01  2.8323209011927786e-01  2.8142197081124271e-01  2.7970322640282069e-01  2.7808422980852493e-01  2.7655224208248880e-01  2.7511950701536142e-01  2.7377044181979282e-01  2.7257201790169150e-01  2.7142004932638475e-01  2.7041095098832280e-01  2.6948300497598204e-01  2.6864915018608582e-01  2.6787525028186471e-01  2.6722179744240254e-01  2.6661883865477543e-01  2.6612424772996918e-01  2.6568820299659396e-01  2.6531252743853156e-01  2.6498223238560220e-01  2.6471403032788621e-01  2.6448711291666860e-01  2.6430031052214537e-01  2.6414202348996663e-01  2.6400622198400781e-01  2.6389452116078527e-01  2.6379626878651186e-01  2.6371325205803137e-01  2.6364156283603390e-01  2.6357783326977530e-01  2.6352389885104655e-01  2.6347438394127509e-01  2.6343209129224820e-01  2.6339455597393591e-01  2.6336374436524723e-01  2.6333819928636859e-01  2.6331780590405507e-01  2.6330198685045464e-01  2.6329011592063323e-01  2.6328148946544899e-01  2.6327546416690600e-01  2.6327132489455329e-01  2.6326857028031947e-01  2.6326686463693133e-01  2.6326598748432178e-01  4.0263233057031855e-01  2.6327160986449427e-01  1.6806793433719233e-01  1.6807198873839166e-01  1.6808013526315688e-01  1.6809470468748489e-01  1.6811931539626124e-01  1.6815925016420447e-01  1.6822192146027531e-01  1.6831746577370291e-01  1.6845915555314978e-01  1.6866406726847555e-01  1.6895360883168697e-01  1.6935345973895724e-01  1.6989528050560768e-01  1.7061476028034134e-01  1.7155332215607685e-01  1.7275495067165020e-01  1.7427021931537193e-01  1.7614059305182148e-01  1.7841363022500586e-01  1.8112062944597221e-01  1.8427688590257366e-01  1.8787085612890583e-01  1.9185655032420912e-01  1.9613941509322810e-01  2.0057992271253605e-01  2.0501028111421274e-01  2.0923579220573502e-01  2.1306750557580229e-01  2.1634081508254083e-01  2.1892941723711790e-01  2.2076734312646318e-01  2.2186727807263135e-01  2.2228879875226257e-01  2.2212210451301492e-01  2.2150508859433149e-01  2.2054635591591268e-01  2.1935039160014455e-01  2.1798652974337931e-01  2.1649151920696522e-01  2.1488861720940133e-01  2.1318225768900020e-01  2.1137524829316148e-01  2.0947458524780951e-01  2.0748824143342143e-01  2.0542293532080330e-01  2.0329594471308648e-01  2.0113333197690755e-01  1.9894997309812099e-01  1.9677324633453699e-01  1.9462370520990210e-01  1.9252371730456108e-01  1.9048985662297827e-01  1.8853915025702708e-01  1.8668202091664818e-01  1.8492769264067949e-01  1.8328179300249020e-01  1.8174599086858509e-01  1.8032110914966951e-01  1.7900533279134098e-01  1.7779469693693181e-01  1.7668518345089895e-01  1.7567296787688716e-01  1.7475212307933330e-01  1.7391824145383084e-01  1.7316543177301938e-01  1.7248932406932865e-01  1.7188491239447939e-01  1.7134812165311822e-01  1.7087382327779321e-01  1.7045813307257171e-01  1.7009668749013926e-01  1.6978400396299967e-01  1.6951638271907082e-01  1.6928890361823679e-01  1.6909672748422622e-01  1.6893541974643039e-01  1.6880067282069769e-01  1.6868798834409957e-01  1.6859348672061253e-01  1.6851396083903364e-01  1.6844633766878628e-01  1.6838829523073312e-01  1.6833787461293973e-01  1.6829373175201662e-01  1.6825479910849767e-01  1.6822041394964868e-01  1.6819013292618787e-01  1.6816371460514415e-01  1.6814098620076362e-01  1.6812181424655065e-01  1.6810602223593910e-01  1.6809337802637497e-01  1.6808358739520782e-01  1.6807627823997695e-01  1.6807103619163333e-01  1.6806744182170877e-01  1.6806510051425605e-01  1.6806368259625484e-01  1.6806295079471156e-01  2.6326606234701505e-01  2.6327561814660988e-01  1.6807109826786948e-01  1.6807711911285411e-01  1.6808896631544565e-01  1.6810958063913806e-01  1.6814315034477445e-01  1.6819538059601663e-01  1.6827386284483670e-01  1.6838847414353800e-01  1.6855177750046707e-01  1.6877944193978825e-01  1.6909040562675112e-01  1.6950735363740924e-01  1.7005680392249342e-01  1.7076799003467116e-01  1.7167427846468594e-01  1.7281095802304602e-01  1.7421159467895095e-01  1.7591045759356988e-01  1.7793558162490811e-01  1.8030607445505833e-01  1.8302441165006966e-01  1.8607483352771720e-01  1.8940636238316383e-01  1.9295229738343100e-01  1.9660018161689116e-01  2.0023126195669827e-01  2.0372032574557714e-01  2.0694340685917809e-01  2.0979051894305978e-01  2.1217617898252580e-01  2.1404690360988782e-01  2.1538144299567838e-01  2.1620776889169294e-01  2.1656599664165149e-01  2.1654724113535850e-01  2.1622092949450569e-01  2.1564804305710600e-01  2.1487243009634796e-01  2.1392142674973152e-01  2.1280589232838809e-01  2.1153422761133367e-01  2.1011193263890537e-01  2.0854285036430181e-01  2.0684106719710701e-01  2.0502197848556317e-01  2.0310488560477408e-01  2.0111677079870963e-01  1.9907430046474869e-01  1.9701251503841544e-01  1.9495393943373446e-01  1.9292159061658723e-01  1.9093599499223113e-01  1.8901765632816619e-01  1.8718041352865020e-01  1.8543455023942695e-01  1.8378855754648443e-01  1.8224703582640911e-01  1.8081207271988989e-01  1.7948295309500445e-01  1.7825814273498347e-01  1.7713323319858998e-01  1.7610442141709262e-01  1.7516736806192593e-01  1.7431517172292810e-01  1.7354413061122112e-01  1.7284860379966152e-01  1.7222387722569460e-01  1.7166529190552035e-01  1.7116892815061849e-01  1.7072974737762137e-01  1.7034437023985960e-01  1.7000829238584461e-01  1.6971763891705158e-01  1.6946814438880167e-01  1.6925558358581913e-01  1.6907553534710773e-01  1.6892367246856899e-01  1.6879580118025431e-01  1.6868804276559315e-01  1.6859675942503038e-01  1.6851906000329986e-01  1.6845218384859595e-01  1.6839411899253806e-01  1.6834330975142717e-01  1.6829856457806122e-01  1.6825903584803936e-01  1.6822412640786530e-01  1.6819344328880817e-01  1.6816669234895223e-01  1.6814364357352751e-01  1.6812410489319032e-01  1.6810787559676926e-01  1.6809473248529158e-01  1.6808442905052948e-01  1.6807666528000778e-01  1.6807110185334093e-01  1.6806736515315146e-01  1.6806508045536731e-01  1.6806392621360100e-01  2.6326726603668110e-01  2.6328263737167107e-01  1.6807695432550579e-01  1.6808635543348513e-01  1.6810403664975049e-01  1.6813352943718735e-01  1.6817967717589405e-01  1.6824881774882294e-01  1.6834890680774364e-01  1.6848979781492754e-01  1.6868348478476392e-01  1.6894441665846568e-01  1.6928916260734933e-01  1.6973675133353888e-01  1.7030820379896358e-01  1.7102665082534477e-01  1.7191584565637139e-01  1.7299855331501793e-01  1.7429647542163937e-01  1.7582945287799878e-01  1.7760711265309068e-01  1.7963598643448847e-01  1.8190882446225148e-01  1.8440170214354151e-01  1.8707219287630211e-01  1.8987673834704216e-01  1.9274425929342071e-01  1.9560907443944217e-01  1.9840778891116070e-01  2.0107709640167848e-01  2.0356001564722997e-01  2.0579840347601716e-01  2.0773859993957583e-01  2.0933613401125706e-01  2.1057275322435764e-01  2.1146093483678463e-01  2.1203348616046894e-01  2.1233275134718460e-01  2.1239053138667327e-01  2.1223100569276729e-01  2.1186151057616093e-01  2.1128838619285234e-01  2.1051029854874301e-01  2.0952967901134006e-01  2.0835115977497146e-01  2.0698668878463924e-01  2.0545040661610633e-01  2.0376758327890171e-01  2.0196325100894064e-01  2.0006673208224413e-01  1.9810748339456499e-01  1.9611447195316067e-01  1.9411704415465519e-01  1.9214129122671939e-01  1.9021026017568612e-01  1.8834295613084714e-01  1.8655545338197130e-01  1.8485961712697441e-01  1.8326384951581759e-01  1.8177262079423256e-01  1.8038780394143972e-01  1.7910876782179558e-01  1.7793248550262558e-01  1.7685522367149134e-01  1.7587130653690822e-01  1.7497545429094516e-01  1.7416155925950311e-01  1.7342481669435689e-01  1.7275903651510843e-01  1.7215994961446796e-01  1.7162276559297698e-01  1.7114375013200614e-01  1.7071868485894351e-01  1.7034468071943326e-01  1.7001774010210255e-01  1.6973430123871072e-01  1.6949036792311645e-01  1.6928202717780030e-01  1.6910501186894686e-01  1.6895499625889870e-01  1.6882790569601744e-01  1.6871987449223250e-01  1.6862757456759764e-01  1.6854809200527848e-01  1.6847907379919264e-01  1.6841870225069352e-01  1.6836555877082693e-01  1.6831852859423010e-01  1.6827682056234280e-01  1.6823982064776152e-01  1.6820709505329287e-01  1.6817830937988987e-01  1.6815323115587419e-01  1.6813168685370555e-01  1.6811355542169307e-01  1.6809870913306713e-01  1.6808699515024739e-01  1.6807818882428105e-01  1.6807197702549226e-01  1.6806799898521316e-01  1.6806591899214840e-01  2.6326975400789182e-01  2.6329399433848932e-01  1.6808636192539822e-01  1.6810056279938729e-01  1.6812604030991621e-01  1.6816669272101195e-01  1.6822802252061964e-01  1.6831701419180678e-01  1.6844220660075868e-01  1.6861369703341933e-01  1.6884330652740359e-01  1.6914464145915367e-01  1.6953243803147186e-01  1.7002291146303408e-01  1.7063165187138979e-01  1.7137640351771993e-01  1.7227170438025488e-01  1.7333027550940111e-01  1.7455988674208162e-01  1.7596674242105445e-01  1.7754913577959971e-01  1.7930070044612686e-01  1.8120078317329416e-01  1.8322822806954905e-01  1.8535331337963418e-01  1.8754767056035621e-01  1.8978834939665062e-01  1.9206292780510395e-01  1.9436360787832377e-01  1.9668055293501682e-01  1.9899547755366850e-01  2.0126569969379729e-01  2.0342000076048442e-01  2.0537724022160217e-01  2.0707582046562706e-01  2.0848914570699459e-01  2.0961696012936126e-01  2.1047445217981833e-01  2.1107898408235337e-01  2.1144142488304585e-01  2.1156706025550756e-01  2.1145435408165489e-01  2.1109996924680544e-01  2.1050253985962089e-01  2.0966333052559596e-01  2.0859094504699091e-01  2.0729851579608116e-01  2.0580740403636741e-01  2.0414544438191473e-01  2.0233961061229783e-01  2.0042544119185482e-01  1.9843731490489824e-01  1.9640687040585494e-01  1.9436704811394012e-01  1.9234777465535641e-01  1.9037400954286618e-01  1.8846779073027869e-01  1.8664688653921013e-01  1.8492417443877143e-01  1.8330849747547678e-01  1.8180437175545358e-01  1.8041300520218673e-01  1.7913275009775600e-01  1.7795943047257268e-01  1.7688767800227553e-01  1.7591088306992983e-01  1.7502223757578447e-01  1.7421506604654713e-01  1.7348303895509751e-01  1.7282045382246253e-01  1.7222264143347282e-01  1.7168513818819689e-01  1.7120463820304377e-01  1.7077779091117748e-01  1.7040144332694579e-01  1.7007257419465546e-01  1.6978765856543757e-01  1.6954273145252571e-01  1.6933363678567268e-01  1.6915582663325593e-01  1.6900476964336070e-01  1.6887617193956522e-01  1.6876609518348726e-01  1.6867126242337505e-01  1.6858890904302129e-01  1.6851685442003017e-01  1.6845335534217856e-01  1.6839702799179970e-01  1.6834680378725908e-01  1.6830187031722144e-01  1.6826159606248622e-01  1.6822556011263790e-01  1.6819348267757350e-01  1.6816522494123246e-01  1.6814073323485884e-01  1.6812001204053803e-01  1.6810304537273393e-01  1.6808973381654710e-01  1.6807987340180061e-01  1.6807319885895763e-01  1.6806949365086482e-01  2.6327415926905628e-01  2.6331114851433479e-01  1.6810023147697264e-01  1.6812045256636307e-01  1.6815526759359592e-01  1.6820877877938481e-01  1.6828701221018727e-01  1.6839764760655432e-01  1.6854987621223705e-01  1.6875432923845143e-01  1.6902309698496334e-01  1.6936932044712164e-01  1.6980673007811631e-01  1.7034944774674787e-01  1.7100959183682232e-01  1.7179931793057229e-01  1.7272621762429369e-01  1.7379382011659661e-01  1.7499880473440374e-01  1.7633534318046176e-01  1.7778866889526576e-01  1.7934140465709447e-01  1.8096877602344486e-01  1.8264697567279589e-01  1.8435529720242683e-01  1.8608881339290759e-01  1.8786848184486851e-01  1.8974135102525214e-01  1.9175860616935886e-01  1.9395904460044000e-01  1.9636360232675609e-01  1.9893440460802614e-01  2.0156473834248279e-01  2.0411776609366422e-01  2.0647113815547699e-01  2.0854535791847870e-01  2.1030413404102460e-01  2.1173861018587226e-01  2.1285234156087443e-01  2.1365501125208730e-01  2.1415674060342912e-01  2.1436580477857464e-01  2.1428841537526616e-01  2.1392872776262001e-01  2.1329046513422900e-01  2.1238165382370616e-01  2.1121400085354991e-01  2.0980558863932047e-01  2.0817960490349072e-01  2.0636496673832699e-01  2.0439717025141216e-01  2.0231169246829667e-01  2.0014642860329204e-01  1.9793958541220052e-01  1.9572680374910759e-01  1.9354127843257596e-01  1.9141174606133857e-01  1.8936340692366910e-01  1.8741543889295778e-01  1.8558161927508837e-01  1.8387079694368089e-01  1.8228681825935464e-01  1.8082944066003664e-01  1.7949506614422547e-01  1.7827753327947882e-01  1.7716922349903413e-01  1.7616166338646422e-01  1.7524626406757482e-01  1.7441492147259821e-01  1.7366058235830270e-01  1.7297720941736910e-01  1.7235979121229400e-01  1.7180453129623716e-01  1.7130832468214696e-01  1.7086827682755124e-01  1.7048162906823344e-01  1.7014520468869423e-01  1.6985518468705593e-01  1.6960714879044314e-01  1.6939603439530926e-01  1.6921668288113212e-01  1.6906397992537409e-01  1.6893328868086199e-01  1.6882067031757553e-01  1.6872288256802753e-01  1.6863725135621779e-01  1.6856169666464987e-01  1.6849447804095760e-01  1.6843423430429058e-01  1.6837991863600854e-01  1.6833072705132873e-01  1.6828611684797254e-01  1.6824577186745535e-01  1.6820955530905640e-01  1.6817748522506532e-01  1.6814966066986284e-01  1.6812617986378356e-01  1.6810707930122337e-01  1.6809230059105548e-01  1.6808176269902653e-01  1.6807554811762512e-01  2.6328154032860612e-01  2.6333630277413472e-01  1.6811942047993836e-01  1.6814633593438227e-01  1.6819137884098934e-01  1.6825871803610423e-01  1.6835478271665613e-01  1.6848786102343691e-01  1.6866792514045389e-01  1.6890632508295889e-01  1.6921579074555718e-01  1.6960959700566983e-01  1.7010141175047680e-01  1.7070367354610536e-01  1.7142696394369741e-01  1.7227822014467728e-01  1.7326070240791405e-01  1.7436962813600410e-01  1.7559331421822930e-01  1.7691301096413040e-01  1.7830711824368503e-01  1.7974397951121543e-01  1.8119407565513232e-01  1.8262907690601396e-01  1.8403689608439991e-01  1.8543838195696483e-01  1.8690609042285317e-01  1.8855636827778094e-01  1.9051056677782444e-01  1.9287053466932702e-01  1.9571035725301952e-01  1.9899391106128972e-01  2.0255163964889142e-01  2.0615371658644416e-01  2.0958070139227841e-01  2.1267484720913191e-01  2.1534100704932330e-01  2.1752862953227903e-01  2.1921823518775899e-01  2.2042342940854098e-01  2.2117753531689058e-01  2.2152219116110561e-01  2.2149780568020636e-01  2.2113517413750547e-01  2.2045766088882354e-01  2.1948138858027172e-01  2.1822015447654555e-01  2.1669145938567994e-01  2.1491507565798401e-01  2.1291718289107364e-01  2.1072899641220366e-01  2.0838662136734737e-01  2.0593053838978537e-01  2.0340249708300506e-01  2.0084383819355867e-01  1.9829569991533830e-01  1.9579509532858469e-01  1.9337476618429561e-01  1.9106162624139761e-01  1.8887667403168446e-01  1.8683411426796309e-01  1.8494167400054834e-01  1.8320185342410161e-01  1.8161184027796470e-01  1.8016505007666272e-01  1.7885224723840215e-01  1.7766266020144231e-01  1.7658496988392561e-01  1.7560840522828980e-01  1.7472295214936681e-01  1.7392052695915325e-01  1.7319447154975112e-01  1.7253982103115495e-01  1.7195291609352814e-01  1.7143087166189314e-01  1.7097100631279857e-01  1.7057027770143182e-01  1.7022475757952074e-01  1.6992955026724194e-01  1.6967882989913990e-01  1.6946624251697293e-01  1.6928551839417985e-01  1.6913101776214906e-01  1.6899791685490473e-01  1.6888232775954379e-01  1.6878108887590274e-01  1.6869162613031938e-01  1.6861185281459054e-01  1.6854006488958509e-01  1.6847495189818826e-01  1.6841550451293355e-01  1.6836107554982374e-01  1.6831127649345137e-01  1.6826596276340719e-01  1.6822518220501484e-01  1.6818909992986336e-01  1.6815789706767170e-01  1.6813173363026179e-01  1.6811072831202392e-01  1.6809507749912081e-01  1.6808536210082239e-01  2.6329369949942516e-01  2.6337009466853994e-01  1.6814474300891266e-01  1.6817819071241749e-01  1.6823347417241025e-01  1.6831476986030836e-01  1.6842874780114961e-01  1.6858431365439477e-01  1.6879212867529689e-01  1.6906452686537021e-01  1.6941496283699103e-01  1.6985765269119593e-01  1.7040669110535311e-01  1.7107341648704039e-01  1.7186899540049339e-01  1.7279687113325140e-01  1.7385545483914580e-01  1.7503556594803829e-01  1.7631677604142948e-01  1.7767132522876272e-01  1.7906528979210984e-01  1.8045993596562582e-01  1.8181489490411154e-01  1.8309729981578896e-01  1.8429918987826688e-01  1.8546891561756895e-01  1.8674911178003401e-01  1.8835963045873066e-01  1.9051679773078675e-01  1.9341579697614333e-01  1.9723314083833698e-01  2.0194135383538289e-01  2.0725751151234914e-01  2.1277668013347795e-01  2.1810480395181780e-01  2.2294742966554121e-01  2.2710974186242794e-01  2.3045220989447848e-01  2.3290585983280129e-01  2.3449367385057682e-01  2.3530746358274338e-01  2.3547211244243854e-01  2.3511221724097656e-01  2.3432815381311356e-01  2.3318975812538467e-01  2.3174048081027571e-01  2.3000801962331999e-01  2.2801025023684102e-01  2.2576128806297613e-01  2.2328181721531765e-01  2.2059774680390867e-01  2.1774023280102903e-01  2.1474532342895836e-01  2.1165795736233739e-01  2.0852217529697656e-01  2.0538554876222920e-01  2.0229389085569294e-01  1.9928726445875961e-01  1.9640287405924536e-01  1.9366952817528638e-01  1.9110959232870292e-01  1.8873664483370156e-01  1.8655664629441965e-01  1.8456887334676583e-01  1.8276669392194791e-01  1.8113929470899343e-01  1.7967277050131431e-01  1.7835196540248696e-01  1.7716161985192627e-01  1.7608754306810392e-01  1.7511760581250330e-01  1.7424187067715527e-01  1.7345292779259069e-01  1.7274559872209685e-01  1.7211622595512671e-01  1.7156185374232644e-01  1.7107932706718129e-01  1.7066435129972687e-01  1.7031117091239545e-01  1.7001251303841214e-01  1.6976034614321214e-01  1.6954661694517689e-01  1.6936411555950409e-01  1.6920696812918024e-01  1.6907046575926993e-01  1.6895087657264102e-01  1.6884517774930849e-01  1.6875081135942560e-01  1.6866570517013799e-01  1.6858818850481397e-01  1.6851706538044708e-01  1.6845153303580213e-01  1.6839110761469150e-01  1.6833560308696163e-01  1.6828506146331015e-01  1.6823964834602467e-01  1.6819960954124299e-01  1.6816520750970293e-01  1.6813675655716956e-01  1.6811481842686107e-01  1.6810063619187143e-01  2.6331292824629443e-01  2.6341208707265246e-01  1.6817661469968986e-01  1.6821560541738084e-01  1.6828028938231754e-01  1.6837476951131294e-01  1.6850596028744089e-01  1.6868322454471585e-01  1.6891799341237432e-01  1.6922361102644012e-01  1.6961451543750111e-01  1.7010636351002831e-01  1.7071359112411802e-01  1.7144945216047924e-01  1.7232371718173273e-01  1.7333966192099370e-01  1.7449298199039517e-01  1.7576802339240116e-01  1.7713862085764234e-01  1.7856923007910655e-01  1.8001422902871017e-01  1.8142172567080020e-01  1.82743420924