<?xml version="1.0"?>
<VTKFile type="UnstructuredGrid"  version="0.1"  >
<UnstructuredGrid>
<Piece  NumberOfPoints="5151" NumberOfCells="10000">
<Points>
<DataArray  type="Float64"  NumberOfComponents="3"  format="ascii">0 0 0  0.02 0 0  0.04 0 0  0.06 0 0  0.08 0 0  0.1 0 0  0.12 0 0  0.14 0 0  0.16 0 0  0.18 0 0  0.2 0 0  0.22 0 0  0.24 0 0  0.26 0 0  0.28 0 0  0.3 0 0  0.32 0 0  0.34 0 0  0.36 0 0  0.38 0 0  0.4 0 0  0.42 0 0  0.44 0 0  0.46 0 0  0.48 0 0  0.5 0 0  0.52 0 0  0.54 0 0  0.5600000000000001 0 0  0.58 0 0  0.6 0 0  0.62 0 0  0.64 0 0  0.66 0 0  0.68 0 0  0.7 0 0  0.72 0 0  0.74 0 0  0.76 0 0  0.78 0 0  0.8 0 0  0.82 0 0  0.84 0 0  0.86 0 0  0.88 0 0  0.9 0 0  0.92 0 0  0.9399999999999999 0 0  0.96 0 0  0.98 0 0  1 0 0  1.02 0 0  1.04 0 0  1.06 0 0  1.08 0 0  1.1 0 0  1.12 0 0  1.14 0 0  1.16 0 0  1.18 0 0  1.2 0 0  1.22 0 0  1.24 0 0  1.26 0 0  1.28 0 0  1.3 0 0  1.32 0 0  1.34 0 0  1.36 0 0  1.38 0 0  1.4 0 0  1.42 0 0  1.44 0 0  1.46 0 0  1.48 0 0  1.5 0 0  1.52 0 0  1.54 0 0  1.56 0 0  1.58 0 0  1.6 0 0  1.62 0 0  1.64 0 0  1.66 0 0  1.68 0 0  1.7 0 0  1.72 0 0  1.74 0 0  1.76 0 0  1.78 0 0  1.8 0 0  1.82 0 0  1.84 0 0  1.86 0 0  1.88 0 0  1.9 0 0  1.92 0 0  1.94 0 0  1.96 0 0  1.98 0 0  2 0 0  0 0.02 0  0.02 0.02 0  0.04 0.02 0  0.06 0.02 0  0.08 0.02 0  0.1 0.02 0  0.12 0.02 0  0.14 0.02 0  0.16 0.02 0  0.18 0.02 0  0.2 0.02 0  0.22 0.02 0  0.24 0.02 0  0.26 0.02 0  0.28 0.02 0  0.3 0.02 0  0.32 0.02 0  0.34 0.02 0  0.36 0.02 0  0.38 0.02 0  0.4 0.02 0  0.42 0.02 0  0.44 0.02 0  0.46 0.02 0  0.48 0.02 0  0.5 0.02 0  0.52 0.02 0  0.54 0.02 0  0.5600000000000001 0.02 0  0.58 0.02 0  0.6 0.02 0  0.62 0.02 0  0.64 0.02 0  0.66 0.02 0  0.68 0.02 0  0.7 0.02 0  0.72 0.02 0  0.74 0.02 0  0.76 0.02 0  0.78 0.02 0  0.8 0.02 0  0.82 0.02 0  0.84 0.02 0  0.86 0.02 0  0.88 0.02 0  0.9 0.02 0  0.92 0.02 0  0.9399999999999999 0.02 0  0.96 0.02 0  0.98 0.02 0  1 0.02 0  1.02 0.02 0  1.04 0.02 0  1.06 0.02 0  1.08 0.02 0  1.1 0.02 0  1.12 0.02 0  1.14 0.02 0  1.16 0.02 0  1.18 0.02 0  1.2 0.02 0  1.22 0.02 0  1.24 0.02 0  1.26 0.02 0  1.28 0.02 0  1.3 0.02 0  1.32 0.02 0  1.34 0.02 0  1.36 0.02 0  1.38 0.02 0  1.4 0.02 0  1.42 0.02 0  1.44 0.02 0  1.46 0.02 0  1.48 0.02 0  1.5 0.02 0  1.52 0.02 0  1.54 0.02 0  1.56 0.02 0  1.58 0.02 0  1.6 0.02 0  1.62 0.02 0  1.64 0.02 0  1.66 0.02 0  1.68 0.02 0  1.7 0.02 0  1.72 0.02 0  1.74 0.02 0  1.76 0.02 0  1.78 0.02 0  1.8 0.02 0  1.82 0.02 0  1.84 0.02 0  1.86 0.02 0  1.88 0.02 0  1.9 0.02 0  1.92 0.02 0  1.94 0.02 0  1.96 0.02 0  1.98 0.02 0  2 0.02 0  0 0.04 0  0.02 0.04 0  0.04 0.04 0  0.06 0.04 0  0.08 0.04 0  0.1 0.04 0  0.12 0.04 0  0.14 0.04 0  0.16 0.04 0  0.18 0.04 0  0.2 0.04 0  0.22 0.04 0  0.24 0.04 0  0.26 0.04 0  0.28 0.04 0  0.3 0.04 0  0.32 0.04 0  0.34 0.04 0  0.36 0.04 0  0.38 0.04 0  0.4 0.04 0  0.42 0.04 0  0.44 0.04 0  0.46 0.04 0  0.48 0.04 0  0.5 0.04 0  0.52 0.04 0  0.54 0.04 0  0.5600000000000001 0.04 0  0.58 0.04 0  0.6 0.04 0  0.62 0.04 0  0.64 0.04 0  0.66 0.04 0  0.68 0.04 0  0.7 0.04 0  0.72 0.04 0  0.74 0.04 0  0.76 0.04 0  0.78 0.04 0  0.8 0.04 0  0.82 0.04 0  0.84 0.04 0  0.86 0.04 0  0.88 0.04 0  0.9 0.04 0  0.92 0.04 0  0.9399999999999999 0.04 0  0.96 0.04 0  0.98 0.04 0  1 0.04 0  1.02 0.04 0  1.04 0.04 0  1.06 0.04 0  1.08 0.04 0  1.1 0.04 0  1.12 0.04 0  1.14 0.04 0  1.16 0.04 0  1.18 0.04 0  1.2 0.04 0  1.22 0.04 0  1.24 0.04 0  1.26 0.04 0  1.28 0.04 0  1.3 0.04 0  1.32 0.04 0  1.34 0.04 0  1.36 0.04 0  1.38 0.04 0  1.4 0.04 0  1.42 0.04 0  1.44 0.04 0  1.46 0.04 0  1.48 0.04 0  1.5 0.04 0  1.52 0.04 0  1.54 0.04 0  1.56 0.04 0  1.58 0.04 0  1.6 0.04 0  1.62 0.04 0  1.64 0.04 0  1.66 0.04 0  1.68 0.04 0  1.7 0.04 0  1.72 0.04 0  1.74 0.04 0  1.76 0.04 0  1.78 0.04 0  1.8 0.04 0  1.82 0.04 0  1.84 0.04 0  1.86 0.04 0  1.88 0.04 0  1.9 0.04 0  1.92 0.04 0  1.94 0.04 0  1.96 0.04 0  1.98 0.04 0  2 0.04 0  0 0.06 0  0.02 0.06 0  0.04 0.06 0  0.06 0.06 0  0.08 0.06 0  0.1 0.06 0  0.12 0.06 0  0.14 0.06 0  0.16 0.06 0  0.18 0.06 0  0.2 0.06 0  0.22 0.06 0  0.24 0.06 0  0.26 0.06 0  0.28 0.06 0  0.3 0.06 0  0.32 0.06 0  0.34 0.06 0  0.36 0.06 0  0.38 0.06 0  0.4 0.06 0  0.42 0.06 0  0.44 0.06 0  0.46 0.06 0  0.48 0.06 0  0.5 0.06 0  0.52 0.06 0  0.54 0.06 0  0.5600000000000001 0.06 0  0.58 0.06 0  0.6 0.06 0  0.62 0.06 0  0.64 0.06 0  0.66 0.06 0  0.68 0.06 0  0.7 0.06 0  0.72 0.06 0  0.74 0.06 0  0.76 0.06 0  0.78 0.06 0  0.8 0.06 0  0.82 0.06 0  0.84 0.06 0  0.86 0.06 0  0.88 0.06 0  0.9 0.06 0  0.92 0.06 0  0.9399999999999999 0.06 0  0.96 0.06 0  0.98 0.06 0  1 0.06 0  1.02 0.06 0  1.04 0.06 0  1.06 0.06 0  1.08 0.06 0  1.1 0.06 0  1.12 0.06 0  1.14 0.06 0  1.16 0.06 0  1.18 0.06 0  1.2 0.06 0  1.22 0.06 0  1.24 0.06 0  1.26 0.06 0  1.28 0.06 0  1.3 0.06 0  1.32 0.06 0  1.34 0.06 0  1.36 0.06 0  1.38 0.06 0  1.4 0.06 0  1.42 0.06 0  1.44 0.06 0  1.46 0.06 0  1.48 0.06 0  1.5 0.06 0  1.52 0.06 0  1.54 0.06 0  1.56 0.06 0  1.58 0.06 0  1.6 0.06 0  1.62 0.06 0  1.64 0.06 0  1.66 0.06 0  1.68 0.06 0  1.7 0.06 0  1.72 0.06 0  1.74 0.06 0  1.76 0.06 0  1.78 0.06 0  1.8 0.06 0  1.82 0.06 0  1.84 0.06 0  1.86 0.06 0  1.88 0.06 0  1.9 0.06 0  1.92 0.06 0  1.94 0.06 0  1.96 0.06 0  1.98 0.06 0  2 0.06 0  0 0.08 0  0.02 0.08 0  0.04 0.08 0  0.06 0.08 0  0.08 0.08 0  0.1 0.08 0  0.12 0.08 0  0.14 0.08 0  0.16 0.08 0  0.18 0.08 0  0.2 0.08 0  0.22 0.08 0  0.24 0.08 0  0.26 0.08 0  0.28 0.08 0  0.3 0.08 0  0.32 0.08 0  0.34 0.08 0  0.36 0.08 0  0.38 0.08 0  0.4 0.08 0  0.42 0.08 0  0.44 0.08 0  0.46 0.08 0  0.48 0.08 0  0.5 0.08 0  0.52 0.08 0  0.54 0.08 0  0.5600000000000001 0.08 0  0.58 0.08 0  0.6 0.08 0  0.62 0.08 0  0.64 0.08 0  0.66 0.08 0  0.68 0.08 0  0.7 0.08 0  0.72 0.08 0  0.74 0.08 0  0.76 0.08 0  0.78 0.08 0  0.8 0.08 0  0.82 0.08 0  0.84 0.08 0  0.86 0.08 0  0.88 0.08 0  0.9 0.08 0  0.92 0.08 0  0.9399999999999999 0.08 0  0.96 0.08 0  0.98 0.08 0  1 0.08 0  1.02 0.08 0  1.04 0.08 0  1.06 0.08 0  1.08 0.08 0  1.1 0.08 0  1.12 0.08 0  1.14 0.08 0  1.16 0.08 0  1.18 0.08 0  1.2 0.08 0  1.22 0.08 0  1.24 0.08 0  1.26 0.08 0  1.28 0.08 0  1.3 0.08 0  1.32 0.08 0  1.34 0.08 0  1.36 0.08 0  1.38 0.08 0  1.4 0.08 0  1.42 0.08 0  1.44 0.08 0  1.46 0.08 0  1.48 0.08 0  1.5 0.08 0  1.52 0.08 0  1.54 0.08 0  1.56 0.08 0  1.58 0.08 0  1.6 0.08 0  1.62 0.08 0  1.64 0.08 0  1.66 0.08 0  1.68 0.08 0  1.7 0.08 0  1.72 0.08 0  1.74 0.08 0  1.76 0.08 0  1.78 0.08 0  1.8 0.08 0  1.82 0.08 0  1.84 0.08 0  1.86 0.08 0  1.88 0.08 0  1.9 0.08 0  1.92 0.08 0  1.94 0.08 0  1.96 0.08 0  1.98 0.08 0  2 0.08 0  0 0.1 0  0.02 0.1 0  0.04 0.1 0  0.06 0.1 0  0.08 0.1 0  0.1 0.1 0  0.12 0.1 0  0.14 0.1 0  0.16 0.1 0  0.18 0.1 0  0.2 0.1 0  0.22 0.1 0  0.24 0.1 0  0.26 0.1 0  0.28 0.1 0  0.3 0.1 0  0.32 0.1 0  0.34 0.1 0  0.36 0.1 0  0.38 0.1 0  0.4 0.1 0  0.42 0.1 0  0.44 0.1 0  0.46 0.1 0  0.48 0.1 0  0.5 0.1 0  0.52 0.1 0  0.54 0.1 0  0.5600000000000001 0.1 0  0.58 0.1 0  0.6 0.1 0  0.62 0.1 0  0.64 0.1 0  0.66 0.1 0  0.68 0.1 0  0.7 0.1 0  0.72 0.1 0  0.74 0.1 0  0.76 0.1 0  0.78 0.1 0  0.8 0.1 0  0.82 0.1 0  0.84 0.1 0  0.86 0.1 0  0.88 0.1 0  0.9 0.1 0  0.92 0.1 0  0.9399999999999999 0.1 0  0.96 0.1 0  0.98 0.1 0  1 0.1 0  1.02 0.1 0  1.04 0.1 0  1.06 0.1 0  1.08 0.1 0  1.1 0.1 0  1.12 0.1 0  1.14 0.1 0  1.16 0.1 0  1.18 0.1 0  1.2 0.1 0  1.22 0.1 0  1.24 0.1 0  1.26 0.1 0  1.28 0.1 0  1.3 0.1 0  1.32 0.1 0  1.34 0.1 0  1.36 0.1 0  1.38 0.1 0  1.4 0.1 0  1.42 0.1 0  1.44 0.1 0  1.46 0.1 0  1.48 0.1 0  1.5 0.1 0  1.52 0.1 0  1.54 0.1 0  1.56 0.1 0  1.58 0.1 0  1.6 0.1 0  1.62 0.1 0  1.64 0.1 0  1.66 0.1 0  1.68 0.1 0  1.7 0.1 0  1.72 0.1 0  1.74 0.1 0  1.76 0.1 0  1.78 0.1 0  1.8 0.1 0  1.82 0.1 0  1.84 0.1 0  1.86 0.1 0  1.88 0.1 0  1.9 0.1 0  1.92 0.1 0  1.94 0.1 0  1.96 0.1 0  1.98 0.1 0  2 0.1 0  0 0.12 0  0.02 0.12 0  0.04 0.12 0  0.06 0.12 0  0.08 0.12 0  0.1 0.12 0  0.12 0.12 0  0.14 0.12 0  0.16 0.12 0  0.18 0.12 0  0.2 0.12 0  0.22 0.12 0  0.24 0.12 0  0.26 0.12 0  0.28 0.12 0  0.3 0.12 0  0.32 0.12 0  0.34 0.12 0  0.36 0.12 0  0.38 0.12 0  0.4 0.12 0  0.42 0.12 0  0.44 0.12 0  0.46 0.12 0  0.48 0.12 0  0.5 0.12 0  0.52 0.12 0  0.54 0.12 0  0.5600000000000001 0.12 0  0.58 0.12 0  0.6 0.12 0  0.62 0.12 0  0.64 0.12 0  0.66 0.12 0  0.68 0.12 0  0.7 0.12 0  0.72 0.12 0  0.74 0.12 0  0.76 0.12 0  0.78 0.12 0  0.8 0.12 0  0.82 0.12 0  0.84 0.12 0  0.86 0.12 0  0.88 0.12 0  0.9 0.12 0  0.92 0.12 0  0.9399999999999999 0.12 0  0.96 0.12 0  0.98 0.12 0  1 0.12 0  1.02 0.12 0  1.04 0.12 0  1.06 0.12 0  1.08 0.12 0  1.1 0.12 0  1.12 0.12 0  1.14 0.12 0  1.16 0.12 0  1.18 0.12 0  1.2 0.12 0  1.22 0.12 0  1.24 0.12 0  1.26 0.12 0  1.28 0.12 0  1.3 0.12 0  1.32 0.12 0  1.34 0.12 0  1.36 0.12 0  1.38 0.12 0  1.4 0.12 0  1.42 0.12 0  1.44 0.12 0  1.46 0.12 0  1.48 0.12 0  1.5 0.12 0  1.52 0.12 0  1.54 0.12 0  1.56 0.12 0  1.58 0.12 0  1.6 0.12 0  1.62 0.12 0  1.64 0.12 0  1.66 0.12 0  1.68 0.12 0  1.7 0.12 0  1.72 0.12 0  1.74 0.12 0  1.76 0.12 0  1.78 0.12 0  1.8 0.12 0  1.82 0.12 0  1.84 0.12 0  1.86 0.12 0  1.88 0.12 0  1.9 0.12 0  1.92 0.12 0  1.94 0.12 0  1.96 0.12 0  1.98 0.12 0  2 0.12 0  0 0.14 0  0.02 0.14 0  0.04 0.14 0  0.06 0.14 0  0.08 0.14 0  0.1 0.14 0  0.12 0.14 0  0.14 0.14 0  0.16 0.14 0  0.18 0.14 0  0.2 0.14 0  0.22 0.14 0  0.24 0.14 0  0.26 0.14 0  0.28 0.14 0  0.3 0.14 0  0.32 0.14 0  0.34 0.14 0  0.36 0.14 0  0.38 0.14 0  0.4 0.14 0  0.42 0.14 0  0.44 0.14 0  0.46 0.14 0  0.48 0.14 0  0.5 0.14 0  0.52 0.14 0  0.54 0.14 0  0.5600000000000001 0.14 0  0.58 0.14 0  0.6 0.14 0  0.62 0.14 0  0.64 0.14 0  0.66 0.14 0  0.68 0.14 0  0.7 0.14 0  0.72 0.14 0  0.74 0.14 0  0.76 0.14 0  0.78 0.14 0  0.8 0.14 0  0.82 0.14 0  0.84 0.14 0  0.86 0.14 0  0.88 0.14 0  0.9 0.14 0  0.92 0.14 0  0.9399999999999999 0.14 0  0.96 0.14 0  0.98 0.14 0  1 0.14 0  1.02 0.14 0  1.04 0.14 0  1.06 0.14 0  1.08 0.14 0  1.1 0.14 0  1.12 0.14 0  1.14 0.14 0  1.16 0.14 0  1.18 0.14 0  1.2 0.14 0  1.22 0.14 0  1.24 0.14 0  1.26 0.14 0  1.28 0.14 0  1.3 0.14 0  1.32 0.14 0  1.34 0.14 0  1.36 0.14 0  1.38 0.14 0  1.4 0.14 0  1.42 0.14 0  1.44 0.14 0  1.46 0.14 0  1.48 0.14 0  1
[...]
<PointData  Scalars="sols[i]"> 
<DataArray  type="Float64"  Name="sols[i]"  format="ascii">1.7885817051940156e-03  1.1930556979477787e-03  1.1930556979477789e-03  1.1930556979477789e-03  1.1930556979477800e-03  1.1930556979477822e-03  1.1930556979477835e-03  1.1930556979477880e-03  1.1930556979477946e-03  1.1930556979478032e-03  1.1930556979478186e-03  1.1930556979478412e-03  1.1930556979478739e-03  1.1930556979479236e-03  1.1930556979479984e-03  1.1930556979481020e-03  1.1930556979482499e-03  1.1930556979484596e-03  1.1930556979487441e-03  1.1930556979491305e-03  1.1930556979496490e-03  1.1930556979503253e-03  1.1930556979511992e-03  1.1930556979523111e-03  1.1930556979536943e-03  1.1930556979553905e-03  1.1930556979574364e-03  1.1930556979598626e-03  1.1930556979627010e-03  1.1930556979659645e-03  1.1930556979696811e-03  1.1930556979738757e-03  1.1930556979785733e-03  1.1930556979838102e-03  1.1930556979896378e-03  1.1930556979961096e-03  1.1930556980033124e-03  1.1930556980113446e-03  1.1930556980203179e-03  1.1930556980303596e-03  1.1930556980416138e-03  1.1930556980542203e-03  1.1930556980683487e-03  1.1930556980841857e-03  1.1930556981019551e-03  1.1930556981219662e-03  1.1930556981446874e-03  1.1930556981708464e-03  1.1930556982016330e-03  1.1930556982389074e-03  1.1930556982854776e-03  1.1930556983453737e-03  1.1930556984240186e-03  1.1930556985281576e-03  1.1930556986653603e-03  1.1930556988429257e-03  1.1930556990661257e-03  1.1930556993358689e-03  1.1930556996463803e-03  1.1930556999833987e-03  1.1930557003238913e-03  1.1930557006379122e-03  1.1930557008926744e-03  1.1930557010582262e-03  1.1930557011133676e-03  1.1930557010501415e-03  1.1930557008755038e-03  1.1930557006096596e-03  1.1930557002816674e-03  1.1930556999236732e-03  1.1930556995655712e-03  1.1930556992310873e-03  1.1930556989359624e-03  1.1930556986880238e-03  1.1930556984885254e-03  1.1930556983340897e-03  1.1930556982186723e-03  1.1930556981351848e-03  1.1930556980766375e-03  1.1930556980368075e-03  1.1930556980105302e-03  1.1930556979937450e-03  1.1930556979833479e-03  1.1930556979770940e-03  1.1930556979733761e-03  1.1930556979710750e-03  1.1930556979694485e-03  1.1930556979680327e-03  1.1930556979665684e-03  1.1930556979649442e-03  1.1930556979631492e-03  1.1930556979612358e-03  1.1930556979592877e-03  1.1930556979574054e-03  1.1930556979556500e-03  1.1930556979541020e-03  1.1930556979528138e-03  1.1930556979518150e-03  1.1930556979511332e-03  1.1930556979508034e-03  3.5714128489603278e-03  1.1930556979477787e-03  5.9686676473468577e-04  5.9686676473468588e-04  5.9686676473468621e-04  5.9686676473468664e-04  5.9686676473468783e-04  5.9686676473468903e-04  5.9686676473469141e-04  5.9686676473469553e-04  5.9686676473470106e-04  5.9686676473471017e-04  5.9686676473472448e-04  5.9686676473474519e-04  5.9686676473477609e-04  5.9686676473482282e-04  5.9686676473488939e-04  5.9686676473498317e-04  5.9686676473511696e-04  5.9686676473530073e-04  5.9686676473555032e-04  5.9686676473588631e-04  5.9686676473632856e-04  5.9686676473690123e-04  5.9686676473763253e-04  5.9686676473854738e-04  5.9686676473967224e-04  5.9686676474103324e-04  5.9686676474265130e-04  5.9686676474454692e-04  5.9686676474673202e-04  5.9686676474922113e-04  5.9686676475203138e-04  5.9686676475517860e-04  5.9686676475868578e-04  5.9686676476258609e-04  5.9686676476691770e-04  5.9686676477173459e-04  5.9686676477710540e-04  5.9686676478310505e-04  5.9686676478982017e-04  5.9686676479734702e-04  5.9686676480578309e-04  5.9686676481523679e-04  5.9686676482583021e-04  5.9686676483770276e-04  5.9686676485104224e-04  5.9686676486612957e-04  5.9686676488340741e-04  5.9686676490360328e-04  5.9686676492788757e-04  5.9686676495806330e-04  5.9686676499677983e-04  5.9686676504769039e-04  5.9686676511545899e-04  5.9686676520548235e-04  5.9686676532318410e-04  5.9686676547280801e-04  5.9686676565575195e-04  5.9686676586878434e-04  5.9686676610261455e-04  5.9686676634146580e-04  5.9686676656423357e-04  5.9686676674733049e-04  5.9686676686881805e-04  5.9686676691283037e-04  5.9686676687302237e-04  5.9686676675393827e-04  5.9686676656986438e-04  5.9686676634159678e-04  5.9686676609219179e-04  5.9686676584299583e-04  5.9686676561083334e-04  5.9686676540671385e-04  5.9686676523595190e-04  5.9686676509919541e-04  5.9686676499386051e-04  5.9686676491555195e-04  5.9686676485921659e-04  5.9686676481993616e-04  5.9686676479337711e-04  5.9686676477597577e-04  5.9686676476494922e-04  5.9686676475819572e-04  5.9686676475418710e-04  5.9686676475184512e-04  5.9686676475041820e-04  5.9686676474940978e-04  5.9686676474851087e-04  5.9686676474755135e-04  5.9686676474646075e-04  5.9686676474523745e-04  5.9686676474392274e-04  5.9686676474257812e-04  5.9686676474127295e-04  5.9686676474006038e-04  5.9686676473898670e-04  5.9686676473809147e-04  5.9686676473739270e-04  5.9686676473690600e-04  5.9686676473664645e-04  1.1930556979512931e-03  1.1930556979477792e-03  5.9686676473468599e-04  5.9686676473468632e-04  5.9686676473468675e-04  5.9686676473468773e-04  5.9686676473468957e-04  5.9686676473469185e-04  5.9686676473469607e-04  5.9686676473470323e-04  5.9686676473471353e-04  5.9686676473473023e-04  5.9686676473475636e-04  5.9686676473479495e-04  5.9686676473485307e-04  5.9686676473494013e-04  5.9686676473506546e-04  5.9686676473524446e-04  5.9686676473549925e-04  5.9686676473585216e-04  5.9686676473633463e-04  5.9686676473698645e-04  5.9686676473784883e-04  5.9686676473897130e-04  5.9686676474040960e-04  5.9686676474221567e-04  5.9686676474444338e-04  5.9686676474714337e-04  5.9686676475035792e-04  5.9686676475412400e-04  5.9686676475846677e-04  5.9686676476341117e-04  5.9686676476898559e-04  5.9686676477521965e-04  5.9686676478215692e-04  5.9686676478986071e-04  5.9686676479841073e-04  5.9686676480791528e-04  5.9686676481850978e-04  5.9686676483034818e-04  5.9686676484360505e-04  5.9686676485847185e-04  5.9686676487514547e-04  5.9686676489383559e-04  5.9686676491476742e-04  5.9686676493819215e-04  5.9686676496443483e-04  5.9686676499397728e-04  5.9686676502759600e-04  5.9686676506660202e-04  5.9686676511317327e-04  5.9686676517078094e-04  5.9686676524468385e-04  5.9686676534234867e-04  5.9686676547358885e-04  5.9686676565010434e-04  5.9686676588407051e-04  5.9686676618553899e-04  5.9686676655871151e-04  5.9686676699775593e-04  5.9686676748334114e-04  5.9686676798145365e-04  5.9686676844588769e-04  5.9686676882476377e-04  5.9686676907009812e-04  5.9686676914803307e-04  5.9686676904662265e-04  5.9686676877852905e-04  5.9686676837770244e-04  5.9686676789133086e-04  5.9686676736987623e-04  5.9686676685826898e-04  5.9686676639021663e-04  5.9686676598616766e-04  5.9686676565432546e-04  5.9686676539344116e-04  5.9686676519619107e-04  5.9686676505225304e-04  5.9686676495063077e-04  5.9686676488112842e-04  5.9686676483508810e-04  5.9686676480560279e-04  5.9686676478741215e-04  5.9686676477663507e-04  5.9686676477049567e-04  5.9686676476705810e-04  5.9686676476499736e-04  5.9686676476345215e-04  5.9686676476190294e-04  5.9686676476008310e-04  5.9686676475790982e-04  5.9686676475542353e-04  5.9686676475273839e-04  5.9686676474999970e-04  5.9686676474735587e-04  5.9686676474492281e-04  5.9686676474279214e-04  5.9686676474102944e-04  5.9686676473966562e-04  5.9686676473872204e-04  5.9686676473822092e-04  1.1930556979538572e-03  1.1930556979477798e-03  5.9686676473468653e-04  5.9686676473468708e-04  5.9686676473468816e-04  5.9686676473468989e-04  5.9686676473469315e-04  5.9686676473469813e-04  5.9686676473470648e-04  5.9686676473472047e-04  5.9686676473474161e-04  5.9686676473477533e-04  5.9686676473482835e-04  5.9686676473490825e-04  5.9686676473502892e-04  5.9686676473520944e-04  5.9686676473547290e-04  5.9686676473585205e-04  5.9686676473639231e-04  5.9686676473714713e-04  5.9686676473818525e-04  5.9686676473959287e-04  5.9686676474146670e-04  5.9686676474391797e-04  5.9686676474707018e-04  5.9686676475104530e-04  5.9686676475596465e-04  5.9686676476194045e-04  5.9686676476906669e-04  5.9686676477742058e-04  5.9686676478705773e-04  5.9686676479802638e-04  5.9686676481037892e-04  5.9686676482417636e-04  5.9686676483951023e-04  5.9686676485651551e-04  5.9686676487537402e-04  5.9686676489632720e-04  5.9686676491967734e-04  5.9686676494577332e-04  5.9686676497500905e-04  5.9686676500781213e-04  5.9686676504462470e-04  5.9686676508590277e-04  5.9686676513211808e-04  5.9686676518377554e-04  5.9686676524149597e-04  5.9686676530618207e-04  5.9686676537931455e-04  5.9686676546346707e-04  5.9686676556307088e-04  5.9686676568544510e-04  5.9686676584204575e-04  5.9686676604965257e-04  5.9686676633099957e-04  5.9686676671405492e-04  5.9686676722899435e-04  5.9686676790210273e-04  5.9686676874659691e-04  5.9686676975183588e-04  5.9686677087398957e-04  5.9686677203234641e-04  5.9686677311501541e-04  5.9686677399523643e-04  5.9686677455580148e-04  5.9686677471531039e-04  5.9686677444791198e-04  5.9686677378942234e-04  5.9686677282752901e-04  5.9686677168003328e-04  5.9686677046914772e-04  5.9686676929992220e-04  5.9686676824752705e-04  5.9686676735405458e-04  5.9686676663258320e-04  5.9686676607502106e-04  5.9686676566067173e-04  5.9686676536352401e-04  5.9686676515740861e-04  5.9686676501900229e-04  5.9686676492911738e-04  5.9686676487284685e-04  5.9686676483909054e-04  5.9686676481982069e-04  5.9686676480937440e-04  5.9686676480384378e-04  5.9686676480058998e-04  5.9686676479792208e-04  5.9686676479485206e-04  5.9686676479091673e-04  5.9686676478603196e-04  5.9686676478036842e-04  5.9686676477424018e-04  5.9686676476801285e-04  5.9686676476203510e-04  5.9686676475658189e-04  5.9686676475185043e-04  5.9686676474796497e-04  5.9686676474498038e-04  5.9686676474292506e-04  5.9686676474183316e-04  1.1930556979599177e-03  1.1930556979477820e-03  5.9686676473468751e-04  5.9686676473468848e-04  5.9686676473469065e-04  5.9686676473469412e-04  5.9686676473470074e-04  5.9686676473471071e-04  5.9686676473472784e-04  5.9686676473475603e-04  5.9686676473480016e-04  5.9686676473487063e-04  5.9686676473498100e-04  5.9686676473515025e-04  5.9686676473540720e-04  5.9686676473579307e-04  5.9686676473636043e-04  5.9686676473718302e-04  5.9686676473836024e-04  5.9686676474001463e-04  5.9686676474230370e-04  5.9686676474542209e-04  5.9686676474959475e-04  5.9686676475508038e-04  5.9686676476216271e-04  5.9686676477112982e-04  5.9686676478226328e-04  5.9686676479581992e-04  5.9686676481201335e-04  5.9686676483101172e-04  5.9686676485293439e-04  5.9686676487787690e-04  5.9686676490593724e-04  5.9686676493724130e-04  5.9686676497198554e-04  5.9686676501046799e-04  5.9686676505310565e-04  5.9686676510045385e-04  5.9686676515320538e-04  5.9686676521216971e-04  5.9686676527825747e-04  5.9686676535245127e-04  5.9686676543576722e-04  5.9686676552923282e-04  5.9686676563387362e-04  5.9686676575073836e-04  5.9686676588103994e-04  5.9686676602648220e-04  5.9686676618989336e-04  5.9686676637635294e-04  5.9686676659495108e-04  5.9686676686128664e-04  5.9686676720062588e-04  5.9686676765119114e-04  5.9686676826640908e-04  5.9686676911412573e-04  5.9686677027018990e-04  5.9686677180403685e-04  5.9686677375572815e-04  5.9686677610771991e-04  5.9686677875933299e-04  5.9686678151532342e-04  5.9686678409901308e-04  5.9686678619381853e-04  5.9686678750680742e-04  5.9686678783753820e-04  5.9686678712937127e-04  5.9686678548354327e-04  5.9686678313021903e-04  5.9686678036874471e-04  5.9686677750024066e-04  5.9686677477417227e-04  5.9686677236008858e-04  5.9686677034424113e-04  5.9686676874352157e-04  5.9686676752713130e-04  5.9686676663829325e-04  5.9686676601155165e-04  5.9686676558419439e-04  5.9686676530229499e-04  5.9686676512276553e-04  5.9686676501295049e-04  5.9686676494902972e-04  5.9686676491407212e-04  5.9686676489627711e-04  5.9686676488756435e-04  5.9686676488253192e-04  5.9686676487776360e-04  5.9686676487133200e-04  5.9686676486243190e-04  5.9686676485107282e-04  5.9686676483780424e-04  5.9686676482346480e-04  5.9686676480896956e-04  5.9686676479515314e-04  5.9686676478265771e-04  5.9686676477191554e-04  5.9686676476316592e-04  5.9686676475649407e-04  5.9686676475192123e-04  5.9686676474948622e-04  1.1930556979727921e-03  1.1930556979477861e-03  5.9686676473468979e-04  5.9686676473469195e-04  5.9686676473469597e-04  5.9686676473470323e-04  5.9686676473471592e-04  5.9686676473473673e-04  5.9686676473477153e-04  5.9686676473482921e-04  5.9686676473492094e-04  5.9686676473506828e-04  5.9686676473530052e-04  5.9686676473565960e-04  5.9686676473620897e-04  5.9686676473703784e-04  5.9686676473826581e-04  5.9686676474005778e-04  5.9686676474263514e-04  5.9686676474627904e-04  5.9686676475134899e-04  5.9686676475828961e-04  5.9686676476762525e-04  5.9686676477995891e-04  5.9686676479595165e-04  5.9686676481628196e-04  5.9686676484160914e-04  5.9686676487252744e-04  5.9686676490952432e-04  5.9686676495296776e-04  5.9686676500310897e-04  5.9686676506013042e-04  5.9686676512421283e-04  5.9686676519560982e-04  5.9686676527474206e-04  5.9686676536227392e-04  5.9686676545916268e-04  5.9686676556669135e-04  5.9686676568646501e-04  5.9686676582036832e-04  5.9686676597051828e-04  5.9686676613919260e-04  5.9686676632874150e-04  5.9686676654150924e-04  5.9686676677976819e-04  5.9686676704572732e-04  5.9686676734175637e-04  5.9686676767100840e-04  5.9686676803874007e-04  5.9686676845475625e-04  5.9686676893741877e-04  5.9686676951960617e-04  5.9686677025663532e-04  5.9686677123515673e-04  5.9686677258037905e-04  5.9686677445668491e-04  5.9686677705463119e-04  5.9686678055721775e-04  5.9686678508247054e-04  5.9686679060936632e-04  5.9686679690775608e-04  5.9686680350350401e-04  5.9686680970833775e-04  5.9686681472607397e-04  5.9686681781903009e-04  5.9686681849001821e-04  5.9686681661711663e-04  5.9686681248571286e-04  5.9686680670291436e-04  5.9686680003245124e-04  5.9686679321737269e-04  5.9686678684856118e-04  5.9686678130429886e-04  5.9686677675419757e-04  5.9686677320352111e-04  5.9686677055188710e-04  5.9686676864752469e-04  5.9686676732766889e-04  5.9686676644324984e-04  5.9686676587040978e-04  5.9686676551296816e-04  5.9686676529977737e-04  5.9686676517996316e-04  5.9686676511792110e-04  5.9686676508908035e-04  5.9686676507671101e-04  5.9686676506970414e-04  5.9686676506112495e-04  5.9686676504721919e-04  5.9686676502666142e-04  5.9686676499990125e-04  5.9686676496854493e-04  5.9686676493477865e-04  5.9686676490087272e-04  5.9686676486881795e-04  5.9686676484009798e-04  5.9686676481564586e-04  5.9686676479590839e-04  5.9686676478097817e-04  5.9686676477079892e-04  5.9686676476536707e-04  1.1930556979994522e-03  1.1930556979477926e-03  5.9686676473469347e-04  5.9686676473469781e-04  5.9686676473470594e-04  5.9686676473472047e-04  5.9686676473474562e-04  5.9686676473478791e-04  5.9686676473485892e-04  5.9686676473497667e-04  5.9686676473516716e-04  5.9686676473547431e-04  5.9686676473596210e-04  5.9686676473672353e-04  5.9686676473789631e-04  5.9686676473967668e-04  5.9686676474233319e-04  5.9686676474623491e-04  5.9686676475187743e-04  5.9686676475990193e-04  5.9686676477112917e-04  5.9686676478657938e-04  5.9686676480747098e-04  5.9686676483521126e-04  5.9686676487134870e-04  5.9686676491748183e-04  5.9686676497515900e-04  5.9686676504576148e-04  5.9686676513040298e-04  5.9686676522988926e-04  5.9686676534473414e-04  5.9686676547526828e-04  5.9686676562180460e-04  5.9686676578483684e-04  5.9686676596526066e-04  5.9686676616455968e-04  5.9686676638493071e-04  5.9686676662934696e-04  5.9686676690153949e-04  5.9686676720590258e-04  5.9686676754736609e-04  5.9686676793122755e-04  5.9686676836294200e-04  5.9686676884790140e-04  5.9686676939121137e-04  5.9686676999758570e-04  5.9686677067164113e-04  5.9686677141902234e-04  5.9686677224906595e-04  5.9686677318001138e-04  5.9686677424798521e-04  5.9686677552099772e-04  5.9686677711852105e-04  5.9686677923506681e-04  5.9686678216203830e-04  5.9686678629586201e-04  5.9686679211378693e-04  5.9686680009635824e-04  5.9686681058444011e-04  5.9686682358470633e-04  5.9686683857680103e-04  5.9686685440827323e-04  5.9686686936094135e-04  5.9686688142324531e-04  5.9686688872749019e-04  5.9686689003405171e-04  5.9686688508895573e-04  5.9686687469544676e-04  5.9686686046037107e-04  5.9686684433547983e-04  5.9686682815100788e-04  5.9686681329617264e-04  5.9686680059865349e-04  5.9686679036803701e-04  5.9686678253005403e-04  5.9686677678251791e-04  5.9686677272852780e-04  5.9686676996867729e-04  5.9686676815248849e-04  5.9686676699842445e-04  5.9686676629398577e-04  5.9686676588572077e-04  5.9686676566600406e-04  5.9686676556054382e-04  5.9686676551844989e-04  5.9686676550516505e-04  5.9686676549782554e-04  5.9686676548235062e-04  5.9686676545149314e-04  5.9686676540331813e-04  5.9686676533979202e-04  5.9686676526537628e-04  5.9686676518567723e-04  5.9686676510628100e-04  5.9686676503190972e-04  5.9686676496594675e-04  5.9686676491036740e-04  5.9686676486594764e-04  5.9686676483264116e-04  5.9686676481006992e-04  5.9686676479801001e-04  1.1930556980540774e-03  1.1930556979478069e-03  5.9686676473470128e-04  5.9686676473470941e-04  5.9686676473472546e-04  5.9686676473475430e-04  5.9686676473480449e-04  5.9686676473488993e-04  5.9686676473503424e-04  5.9686676473527439e-04  5.9686676473566795e-04  5.9686676473630698e-04  5.9686676473732873e-04  5.9686676473893802e-04  5.9686676474143569e-04  5.9686676474525241e-04  5.9686676475098838e-04  5.9686676475946879e-04  5.9686676477180517e-04  5.9686676478945327e-04  5.9686676481428519e-04  5.9686676484864280e-04  5.9686676489535445e-04  5.9686676495770725e-04  5.9686676503933563e-04  5.9686676514401297e-04  5.9686676527538466e-04  5.9686676543667134e-04  5.9686676563042000e-04  5.9686676585838803e-04  5.9686676612159492e-04  5.9686676642058004e-04  5.9686676675581860e-04  5.9686676712822600e-04  5.9686676753969070e-04  5.9686676799352916e-04  5.9686676849478619e-04  5.9686676905036412e-04  5.9686676966895567e-04  5.9686677036081186e-04  5.9686677113742533e-04  5.9686677201113139e-04  5.9686677299462842e-04  5.9686677410040296e-04  5.9686677534007289e-04  5.9686677672386235e-04  5.9686677826077748e-04  5.9686677996047006e-04  5.9686678183840070e-04  5.9686678392669443e-04  5.9686678629386849e-04  5.9686678907712638e-04  5.9686679252996476e-04  5.9686679708346470e-04  5.9686680340967531e-04  5.9686681245872534e-04  5.9686682542104937e-04  5.9686684355382709e-04  5.9686686782735310e-04  5.9686689841402182e-04  5.9686693415613107e-04  5.9686697225192322e-04  5.9686700839869781e-04  5.9686703749238762e-04  5.9686705477890998e-04  5.9686705715044015e-04  5.9686704410565755e-04  5.9686701790539478e-04  5.9686698281758333e-04  5.9686694383532266e-04  5.9686690545177458e-04  5.9686687089872861e-04  5.9686684193693471e-04  5.9686681905544655e-04  5.9686680186352766e-04  5.9686678949668302e-04  5.9686678093693636e-04  5.9686677521737167e-04  5.9686677152383336e-04  5.9686676922386108e-04  5.9686676785350239e-04  5.9686676708566792e-04  5.9686676669515966e-04  5.9686676652832523e-04  5.9686676648032977e-04  5.9686676647990129e-04  5.9686676647990823e-04  5.9686676645173610e-04  5.9686676638157532e-04  5.9686676626736189e-04  5.9686676611569512e-04  5.9686676593858191e-04  5.9686676575023063e-04  5.9686676556428855e-04  5.9686676539188555e-04  5.9686676524064292e-04  5.9686676511463076e-04  5.9686676501500419e-04  5.9686676494102029e-04  5.9686676489122700e-04  5.9686676486461320e-04  1.1930556981651263e-03  1.1930556979478334e-03  5.9686676473471592e-04  5.9686676473473196e-04  5.9686676473476351e-04  5.9686676473482043e-04  5.9686676473492040e-04  5.9686676473509170e-04  5.9686676473538292e-04  5.9686676473587211e-04  5.9686676473668092e-04  5.9686676473800419e-04  5.9686676474013834e-04  5.9686676474352766e-04  5.9686676474882984e-04  5.9686676475699291e-04  5.9686676476934967e-04  5.9686676478774316e-04  5.9686676481466672e-04  5.9686676485341415e-04  5.9686676490824974e-04  5.9686676498454884e-04  5.96866765088