<?xml version="1.0"?>
<VTKFile type="UnstructuredGrid"  version="0.1"  >
<UnstructuredGrid>
<Piece  NumberOfPoints="5151" NumberOfCells="10000">
<Points>
<DataArray  type="Float64"  NumberOfComponents="3"  format="ascii">0 0 0  0.02 0 0  0.04 0 0  0.06 0 0  0.08 0 0  0.1 0 0  0.12 0 0  0.14 0 0  0.16 0 0  0.18 0 0  0.2 0 0  0.22 0 0  0.24 0 0  0.26 0 0  0.28 0 0  0.3 0 0  0.32 0 0  0.34 0 0  0.36 0 0  0.38 0 0  0.4 0 0  0.42 0 0  0.44 0 0  0.46 0 0  0.48 0 0  0.5 0 0  0.52 0 0  0.54 0 0  0.5600000000000001 0 0  0.58 0 0  0.6 0 0  0.62 0 0  0.64 0 0  0.66 0 0  0.68 0 0  0.7 0 0  0.72 0 0  0.74 0 0  0.76 0 0  0.78 0 0  0.8 0 0  0.82 0 0  0.84 0 0  0.86 0 0  0.88 0 0  0.9 0 0  0.92 0 0  0.9399999999999999 0 0  0.96 0 0  0.98 0 0  1 0 0  1.02 0 0  1.04 0 0  1.06 0 0  1.08 0 0  1.1 0 0  1.12 0 0  1.14 0 0  1.16 0 0  1.18 0 0  1.2 0 0  1.22 0 0  1.24 0 0  1.26 0 0  1.28 0 0  1.3 0 0  1.32 0 0  1.34 0 0  1.36 0 0  1.38 0 0  1.4 0 0  1.42 0 0  1.44 0 0  1.46 0 0  1.48 0 0  1.5 0 0  1.52 0 0  1.54 0 0  1.56 0 0  1.58 0 0  1.6 0 0  1.62 0 0  1.64 0 0  1.66 0 0  1.68 0 0  1.7 0 0  1.72 0 0  1.74 0 0  1.76 0 0  1.78 0 0  1.8 0 0  1.82 0 0  1.84 0 0  1.86 0 0  1.88 0 0  1.9 0 0  1.92 0 0  1.94 0 0  1.96 0 0  1.98 0 0  2 0 0  0 0.02 0  0.02 0.02 0  0.04 0.02 0  0.06 0.02 0  0.08 0.02 0  0.1 0.02 0  0.12 0.02 0  0.14 0.02 0  0.16 0.02 0  0.18 0.02 0  0.2 0.02 0  0.22 0.02 0  0.24 0.02 0  0.26 0.02 0  0.28 0.02 0  0.3 0.02 0  0.32 0.02 0  0.34 0.02 0  0.36 0.02 0  0.38 0.02 0  0.4 0.02 0  0.42 0.02 0  0.44 0.02 0  0.46 0.02 0  0.48 0.02 0  0.5 0.02 0  0.52 0.02 0  0.54 0.02 0  0.5600000000000001 0.02 0  0.58 0.02 0  0.6 0.02 0  0.62 0.02 0  0.64 0.02 0  0.66 0.02 0  0.68 0.02 0  0.7 0.02 0  0.72 0.02 0  0.74 0.02 0  0.76 0.02 0  0.78 0.02 0  0.8 0.02 0  0.82 0.02 0  0.84 0.02 0  0.86 0.02 0  0.88 0.02 0  0.9 0.02 0  0.92 0.02 0  0.9399999999999999 0.02 0  0.96 0.02 0  0.98 0.02 0  1 0.02 0  1.02 0.02 0  1.04 0.02 0  1.06 0.02 0  1.08 0.02 0  1.1 0.02 0  1.12 0.02 0  1.14 0.02 0  1.16 0.02 0  1.18 0.02 0  1.2 0.02 0  1.22 0.02 0  1.24 0.02 0  1.26 0.02 0  1.28 0.02 0  1.3 0.02 0  1.32 0.02 0  1.34 0.02 0  1.36 0.02 0  1.38 0.02 0  1.4 0.02 0  1.42 0.02 0  1.44 0.02 0  1.46 0.02 0  1.48 0.02 0  1.5 0.02 0  1.52 0.02 0  1.54 0.02 0  1.56 0.02 0  1.58 0.02 0  1.6 0.02 0  1.62 0.02 0  1.64 0.02 0  1.66 0.02 0  1.68 0.02 0  1.7 0.02 0  1.72 0.02 0  1.74 0.02 0  1.76 0.02 0  1.78 0.02 0  1.8 0.02 0  1.82 0.02 0  1.84 0.02 0  1.86 0.02 0  1.88 0.02 0  1.9 0.02 0  1.92 0.02 0  1.94 0.02 0  1.96 0.02 0  1.98 0.02 0  2 0.02 0  0 0.04 0  0.02 0.04 0  0.04 0.04 0  0.06 0.04 0  0.08 0.04 0  0.1 0.04 0  0.12 0.04 0  0.14 0.04 0  0.16 0.04 0  0.18 0.04 0  0.2 0.04 0  0.22 0.04 0  0.24 0.04 0  0.26 0.04 0  0.28 0.04 0  0.3 0.04 0  0.32 0.04 0  0.34 0.04 0  0.36 0.04 0  0.38 0.04 0  0.4 0.04 0  0.42 0.04 0  0.44 0.04 0  0.46 0.04 0  0.48 0.04 0  0.5 0.04 0  0.52 0.04 0  0.54 0.04 0  0.5600000000000001 0.04 0  0.58 0.04 0  0.6 0.04 0  0.62 0.04 0  0.64 0.04 0  0.66 0.04 0  0.68 0.04 0  0.7 0.04 0  0.72 0.04 0  0.74 0.04 0  0.76 0.04 0  0.78 0.04 0  0.8 0.04 0  0.82 0.04 0  0.84 0.04 0  0.86 0.04 0  0.88 0.04 0  0.9 0.04 0  0.92 0.04 0  0.9399999999999999 0.04 0  0.96 0.04 0  0.98 0.04 0  1 0.04 0  1.02 0.04 0  1.04 0.04 0  1.06 0.04 0  1.08 0.04 0  1.1 0.04 0  1.12 0.04 0  1.14 0.04 0  1.16 0.04 0  1.18 0.04 0  1.2 0.04 0  1.22 0.04 0  1.24 0.04 0  1.26 0.04 0  1.28 0.04 0  1.3 0.04 0  1.32 0.04 0  1.34 0.04 0  1.36 0.04 0  1.38 0.04 0  1.4 0.04 0  1.42 0.04 0  1.44 0.04 0  1.46 0.04 0  1.48 0.04 0  1.5 0.04 0  1.52 0.04 0  1.54 0.04 0  1.56 0.04 0  1.58 0.04 0  1.6 0.04 0  1.62 0.04 0  1.64 0.04 0  1.66 0.04 0  1.68 0.04 0  1.7 0.04 0  1.72 0.04 0  1.74 0.04 0  1.76 0.04 0  1.78 0.04 0  1.8 0.04 0  1.82 0.04 0  1.84 0.04 0  1.86 0.04 0  1.88 0.04 0  1.9 0.04 0  1.92 0.04 0  1.94 0.04 0  1.96 0.04 0  1.98 0.04 0  2 0.04 0  0 0.06 0  0.02 0.06 0  0.04 0.06 0  0.06 0.06 0  0.08 0.06 0  0.1 0.06 0  0.12 0.06 0  0.14 0.06 0  0.16 0.06 0  0.18 0.06 0  0.2 0.06 0  0.22 0.06 0  0.24 0.06 0  0.26 0.06 0  0.28 0.06 0  0.3 0.06 0  0.32 0.06 0  0.34 0.06 0  0.36 0.06 0  0.38 0.06 0  0.4 0.06 0  0.42 0.06 0  0.44 0.06 0  0.46 0.06 0  0.48 0.06 0  0.5 0.06 0  0.52 0.06 0  0.54 0.06 0  0.5600000000000001 0.06 0  0.58 0.06 0  0.6 0.06 0  0.62 0.06 0  0.64 0.06 0  0.66 0.06 0  0.68 0.06 0  0.7 0.06 0  0.72 0.06 0  0.74 0.06 0  0.76 0.06 0  0.78 0.06 0  0.8 0.06 0  0.82 0.06 0  0.84 0.06 0  0.86 0.06 0  0.88 0.06 0  0.9 0.06 0  0.92 0.06 0  0.9399999999999999 0.06 0  0.96 0.06 0  0.98 0.06 0  1 0.06 0  1.02 0.06 0  1.04 0.06 0  1.06 0.06 0  1.08 0.06 0  1.1 0.06 0  1.12 0.06 0  1.14 0.06 0  1.16 0.06 0  1.18 0.06 0  1.2 0.06 0  1.22 0.06 0  1.24 0.06 0  1.26 0.06 0  1.28 0.06 0  1.3 0.06 0  1.32 0.06 0  1.34 0.06 0  1.36 0.06 0  1.38 0.06 0  1.4 0.06 0  1.42 0.06 0  1.44 0.06 0  1.46 0.06 0  1.48 0.06 0  1.5 0.06 0  1.52 0.06 0  1.54 0.06 0  1.56 0.06 0  1.58 0.06 0  1.6 0.06 0  1.62 0.06 0  1.64 0.06 0  1.66 0.06 0  1.68 0.06 0  1.7 0.06 0  1.72 0.06 0  1.74 0.06 0  1.76 0.06 0  1.78 0.06 0  1.8 0.06 0  1.82 0.06 0  1.84 0.06 0  1.86 0.06 0  1.88 0.06 0  1.9 0.06 0  1.92 0.06 0  1.94 0.06 0  1.96 0.06 0  1.98 0.06 0  2 0.06 0  0 0.08 0  0.02 0.08 0  0.04 0.08 0  0.06 0.08 0  0.08 0.08 0  0.1 0.08 0  0.12 0.08 0  0.14 0.08 0  0.16 0.08 0  0.18 0.08 0  0.2 0.08 0  0.22 0.08 0  0.24 0.08 0  0.26 0.08 0  0.28 0.08 0  0.3 0.08 0  0.32 0.08 0  0.34 0.08 0  0.36 0.08 0  0.38 0.08 0  0.4 0.08 0  0.42 0.08 0  0.44 0.08 0  0.46 0.08 0  0.48 0.08 0  0.5 0.08 0  0.52 0.08 0  0.54 0.08 0  0.5600000000000001 0.08 0  0.58 0.08 0  0.6 0.08 0  0.62 0.08 0  0.64 0.08 0  0.66 0.08 0  0.68 0.08 0  0.7 0.08 0  0.72 0.08 0  0.74 0.08 0  0.76 0.08 0  0.78 0.08 0  0.8 0.08 0  0.82 0.08 0  0.84 0.08 0  0.86 0.08 0  0.88 0.08 0  0.9 0.08 0  0.92 0.08 0  0.9399999999999999 0.08 0  0.96 0.08 0  0.98 0.08 0  1 0.08 0  1.02 0.08 0  1.04 0.08 0  1.06 0.08 0  1.08 0.08 0  1.1 0.08 0  1.12 0.08 0  1.14 0.08 0  1.16 0.08 0  1.18 0.08 0  1.2 0.08 0  1.22 0.08 0  1.24 0.08 0  1.26 0.08 0  1.28 0.08 0  1.3 0.08 0  1.32 0.08 0  1.34 0.08 0  1.36 0.08 0  1.38 0.08 0  1.4 0.08 0  1.42 0.08 0  1.44 0.08 0  1.46 0.08 0  1.48 0.08 0  1.5 0.08 0  1.52 0.08 0  1.54 0.08 0  1.56 0.08 0  1.58 0.08 0  1.6 0.08 0  1.62 0.08 0  1.64 0.08 0  1.66 0.08 0  1.68 0.08 0  1.7 0.08 0  1.72 0.08 0  1.74 0.08 0  1.76 0.08 0  1.78 0.08 0  1.8 0.08 0  1.82 0.08 0  1.84 0.08 0  1.86 0.08 0  1.88 0.08 0  1.9 0.08 0  1.92 0.08 0  1.94 0.08 0  1.96 0.08 0  1.98 0.08 0  2 0.08 0  0 0.1 0  0.02 0.1 0  0.04 0.1 0  0.06 0.1 0  0.08 0.1 0  0.1 0.1 0  0.12 0.1 0  0.14 0.1 0  0.16 0.1 0  0.18 0.1 0  0.2 0.1 0  0.22 0.1 0  0.24 0.1 0  0.26 0.1 0  0.28 0.1 0  0.3 0.1 0  0.32 0.1 0  0.34 0.1 0  0.36 0.1 0  0.38 0.1 0  0.4 0.1 0  0.42 0.1 0  0.44 0.1 0  0.46 0.1 0  0.48 0.1 0  0.5 0.1 0  0.52 0.1 0  0.54 0.1 0  0.5600000000000001 0.1 0  0.58 0.1 0  0.6 0.1 0  0.62 0.1 0  0.64 0.1 0  0.66 0.1 0  0.68 0.1 0  0.7 0.1 0  0.72 0.1 0  0.74 0.1 0  0.76 0.1 0  0.78 0.1 0  0.8 0.1 0  0.82 0.1 0  0.84 0.1 0  0.86 0.1 0  0.88 0.1 0  0.9 0.1 0  0.92 0.1 0  0.9399999999999999 0.1 0  0.96 0.1 0  0.98 0.1 0  1 0.1 0  1.02 0.1 0  1.04 0.1 0  1.06 0.1 0  1.08 0.1 0  1.1 0.1 0  1.12 0.1 0  1.14 0.1 0  1.16 0.1 0  1.18 0.1 0  1.2 0.1 0  1.22 0.1 0  1.24 0.1 0  1.26 0.1 0  1.28 0.1 0  1.3 0.1 0  1.32 0.1 0  1.34 0.1 0  1.36 0.1 0  1.38 0.1 0  1.4 0.1 0  1.42 0.1 0  1.44 0.1 0  1.46 0.1 0  1.48 0.1 0  1.5 0.1 0  1.52 0.1 0  1.54 0.1 0  1.56 0.1 0  1.58 0.1 0  1.6 0.1 0  1.62 0.1 0  1.64 0.1 0  1.66 0.1 0  1.68 0.1 0  1.7 0.1 0  1.72 0.1 0  1.74 0.1 0  1.76 0.1 0  1.78 0.1 0  1.8 0.1 0  1.82 0.1 0  1.84 0.1 0  1.86 0.1 0  1.88 0.1 0  1.9 0.1 0  1.92 0.1 0  1.94 0.1 0  1.96 0.1 0  1.98 0.1 0  2 0.1 0  0 0.12 0  0.02 0.12 0  0.04 0.12 0  0.06 0.12 0  0.08 0.12 0  0.1 0.12 0  0.12 0.12 0  0.14 0.12 0  0.16 0.12 0  0.18 0.12 0  0.2 0.12 0  0.22 0.12 0  0.24 0.12 0  0.26 0.12 0  0.28 0.12 0  0.3 0.12 0  0.32 0.12 0  0.34 0.12 0  0.36 0.12 0  0.38 0.12 0  0.4 0.12 0  0.42 0.12 0  0.44 0.12 0  0.46 0.12 0  0.48 0.12 0  0.5 0.12 0  0.52 0.12 0  0.54 0.12 0  0.5600000000000001 0.12 0  0.58 0.12 0  0.6 0.12 0  0.62 0.12 0  0.64 0.12 0  0.66 0.12 0  0.68 0.12 0  0.7 0.12 0  0.72 0.12 0  0.74 0.12 0  0.76 0.12 0  0.78 0.12 0  0.8 0.12 0  0.82 0.12 0  0.84 0.12 0  0.86 0.12 0  0.88 0.12 0  0.9 0.12 0  0.92 0.12 0  0.9399999999999999 0.12 0  0.96 0.12 0  0.98 0.12 0  1 0.12 0  1.02 0.12 0  1.04 0.12 0  1.06 0.12 0  1.08 0.12 0  1.1 0.12 0  1.12 0.12 0  1.14 0.12 0  1.16 0.12 0  1.18 0.12 0  1.2 0.12 0  1.22 0.12 0  1.24 0.12 0  1.26 0.12 0  1.28 0.12 0  1.3 0.12 0  1.32 0.12 0  1.34 0.12 0  1.36 0.12 0  1.38 0.12 0  1.4 0.12 0  1.42 0.12 0  1.44 0.12 0  1.46 0.12 0  1.48 0.12 0  1.5 0.12 0  1.52 0.12 0  1.54 0.12 0  1.56 0.12 0  1.58 0.12 0  1.6 0.12 0  1.62 0.12 0  1.64 0.12 0  1.66 0.12 0  1.68 0.12 0  1.7 0.12 0  1.72 0.12 0  1.74 0.12 0  1.76 0.12 0  1.78 0.12 0  1.8 0.12 0  1.82 0.12 0  1.84 0.12 0  1.86 0.12 0  1.88 0.12 0  1.9 0.12 0  1.92 0.12 0  1.94 0.12 0  1.96 0.12 0  1.98 0.12 0  2 0.12 0  0 0.14 0  0.02 0.14 0  0.04 0.14 0  0.06 0.14 0  0.08 0.14 0  0.1 0.14 0  0.12 0.14 0  0.14 0.14 0  0.16 0.14 0  0.18 0.14 0  0.2 0.14 0  0.22 0.14 0  0.24 0.14 0  0.26 0.14 0  0.28 0.14 0  0.3 0.14 0  0.32 0.14 0  0.34 0.14 0  0.36 0.14 0  0.38 0.14 0  0.4 0.14 0  0.42 0.14 0  0.44 0.14 0  0.46 0.14 0  0.48 0.14 0  0.5 0.14 0  0.52 0.14 0  0.54 0.14 0  0.5600000000000001 0.14 0  0.58 0.14 0  0.6 0.14 0  0.62 0.14 0  0.64 0.14 0  0.66 0.14 0  0.68 0.14 0  0.7 0.14 0  0.72 0.14 0  0.74 0.14 0  0.76 0.14 0  0.78 0.14 0  0.8 0.14 0  0.82 0.14 0  0.84 0.14 0  0.86 0.14 0  0.88 0.14 0  0.9 0.14 0  0.92 0.14 0  0.9399999999999999 0.14 0  0.96 0.14 0  0.98 0.14 0  1 0.14 0  1.02 0.14 0  1.04 0.14 0  1.06 0.14 0  1.08 0.14 0  1.1 0.14 0  1.12 0.14 0  1.14 0.14 0  1.16 0.14 0  1.18 0.14 0  1.2 0.14 0  1.22 0.14 0  1.24 0.14 0  1.26 0.14 0  1.28 0.14 0  1.3 0.14 0  1.32 0.14 0  1.34 0.14 0  1.36 0.14 0  1.38 0.14 0  1.4 0.14 0  1.42 0.14 0  1.44 0.14 0  1.46 0.14 0  1.48 0.14 0  1
[...]
<PointData  Scalars="sols[i]"> 
<DataArray  type="Float64"  Name="sols[i]"  format="ascii">3.8329605021615249e-03  2.5589792779696706e-03  2.5589792779696745e-03  2.5589792779696745e-03  2.5589792779696758e-03  2.5589792779696762e-03  2.5589792779696719e-03  2.5589792779696658e-03  2.5589792779696537e-03  2.5589792779696337e-03  2.5589792779696146e-03  2.5589792779695955e-03  2.5589792779695834e-03  2.5589792779695990e-03  2.5589792779696615e-03  2.5589792779697942e-03  2.5589792779700427e-03  2.5589792779704698e-03  2.5589792779711377e-03  2.5589792779721413e-03  2.5589792779735967e-03  2.5589792779756267e-03  2.5589792779783863e-03  2.5589792779820504e-03  2.5589792779867893e-03  2.5589792779928022e-03  2.5589792780002815e-03  2.5589792780094244e-03  2.5589792780204303e-03  2.5589792780334715e-03  2.5589792780487553e-03  2.5589792780664920e-03  2.5589792780868876e-03  2.5589792781101918e-03  2.5589792781366789e-03  2.5589792781666345e-03  2.5589792782004205e-03  2.5589792782384230e-03  2.5589792782810547e-03  2.5589792783287566e-03  2.5589792783819840e-03  2.5589792784411706e-03  2.5589792785067722e-03  2.5589792785792134e-03  2.5589792786589265e-03  2.5589792787463986e-03  2.5589792788423037e-03  2.5589792789476656e-03  2.5589792790642525e-03  2.5589792791950103e-03  2.5589792793446640e-03  2.5589792795203945e-03  2.5589792797323886e-03  2.5589792799939792e-03  2.5589792803209898e-03  2.5589792807297908e-03  2.5589792812338269e-03  2.5589792818385515e-03  2.5589792825358539e-03  2.5589792832989948e-03  2.5589792840804513e-03  2.5589792848144956e-03  2.5589792854253694e-03  2.5589792858401387e-03  2.5589792860032995e-03  2.5589792858888793e-03  2.5589792855061706e-03  2.5589792848972680e-03  2.5589792841274775e-03  2.5589792832718030e-03  2.5589792824019012e-03  2.5589792815761897e-03  2.5589792808348695e-03  2.5589792801995414e-03  2.5589792796760092e-03  2.5589792792586573e-03  2.5589792789350238e-03  2.5589792786896667e-03  2.5589792785069339e-03  2.5589792783726199e-03  2.5589792782747529e-03  2.5589792782037633e-03  2.5589792781522121e-03  2.5589792781145707e-03  2.5589792780867566e-03  2.5589792780657959e-03  2.5589792780495672e-03  2.5589792780365992e-03  2.5589792780258925e-03  2.5589792780168073e-03  2.5589792780089486e-03  2.5589792780020978e-03  2.5589792779961299e-03  2.5589792779909947e-03  2.5589792779866054e-03  2.5589792779829547e-03  2.5589792779800316e-03  2.5589792779778164e-03  2.5589792779763172e-03  2.5589792779755760e-03  7.6158874791534617e-03  2.5589792779696710e-03  1.2810238756197625e-03  1.2810238756197627e-03  1.2810238756197634e-03  1.2810238756197632e-03  1.2810238756197638e-03  1.2810238756197625e-03  1.2810238756197612e-03  1.2810238756197601e-03  1.2810238756197582e-03  1.2810238756197590e-03  1.2810238756197675e-03  1.2810238756197866e-03  1.2810238756198263e-03  1.2810238756199035e-03  1.2810238756200329e-03  1.2810238756202398e-03  1.2810238756205622e-03  1.2810238756210397e-03  1.2810238756217258e-03  1.2810238756226916e-03  1.2810238756240098e-03  1.2810238756257694e-03  1.2810238756280727e-03  1.2810238756310191e-03  1.2810238756347161e-03  1.2810238756392743e-03  1.2810238756447965e-03  1.2810238756513876e-03  1.2810238756591371e-03  1.2810238756681407e-03  1.2810238756785057e-03  1.2810238756903348e-03  1.2810238757037513e-03  1.2810238757189011e-03  1.2810238757359430e-03  1.2810238757550707e-03  1.2810238757765100e-03  1.2810238758004999e-03  1.2810238758273018e-03  1.2810238758571902e-03  1.2810238758904327e-03  1.2810238759272988e-03  1.2810238759680583e-03  1.2810238760129725e-03  1.2810238760623412e-03  1.2810238761165758e-03  1.2810238761763188e-03  1.2810238762426826e-03  1.2810238763175722e-03  1.2810238764040991e-03  1.2810238765070931e-03  1.2810238766335573e-03  1.2810238767928873e-03  1.2810238769965566e-03  1.2810238772569184e-03  1.2810238775848525e-03  1.2810238779861936e-03  1.2810238784575004e-03  1.2810238789821150e-03  1.2810238795280492e-03  1.2810238800493345e-03  1.2810238804915953e-03  1.2810238808013659e-03  1.2810238809370094e-03  1.2810238808780205e-03  1.2810238806296303e-03  1.2810238802212091e-03  1.2810238796992083e-03  1.2810238791171743e-03  1.2810238785260389e-03  1.2810238779669882e-03  1.2810238774679289e-03  1.2810238770433850e-03  1.2810238766966780e-03  1.2810238764231884e-03  1.2810238762136800e-03  1.2810238760570399e-03  1.2810238759422053e-03  1.2810238758592827e-03  1.2810238758000385e-03  1.2810238757579669e-03  1.2810238757280891e-03  1.2810238757067223e-03  1.2810238756911995e-03  1.2810238756795977e-03  1.2810238756705747e-03  1.2810238756632217e-03  1.2810238756569511e-03  1.2810238756514154e-03  1.2810238756464332e-03  1.2810238756419332e-03  1.2810238756379040e-03  1.2810238756343663e-03  1.2810238756313218e-03  1.2810238756287766e-03  1.2810238756267402e-03  1.2810238756251965e-03  1.2810238756241397e-03  1.2810238756235752e-03  2.5589792779764564e-03  2.5589792779696745e-03  1.2810238756197630e-03  1.2810238756197634e-03  1.2810238756197630e-03  1.2810238756197632e-03  1.2810238756197645e-03  1.2810238756197653e-03  1.2810238756197695e-03  1.2810238756197781e-03  1.2810238756197916e-03  1.2810238756198176e-03  1.2810238756198636e-03  1.2810238756199375e-03  1.2810238756200570e-03  1.2810238756202465e-03  1.2810238756205314e-03  1.2810238756209538e-03  1.2810238756215725e-03  1.2810238756224511e-03  1.2810238756236767e-03  1.2810238756253587e-03  1.2810238756276141e-03  1.2810238756305820e-03  1.2810238756344183e-03  1.2810238756392732e-03  1.2810238756453024e-03  1.2810238756526563e-03  1.2810238756614670e-03  1.2810238756718558e-03  1.2810238756839197e-03  1.2810238756977548e-03  1.2810238757134656e-03  1.2810238757311608e-03  1.2810238757509807e-03  1.2810238757731082e-03  1.2810238757977638e-03  1.2810238758252310e-03  1.2810238758558521e-03  1.2810238758900088e-03  1.2810238759281259e-03  1.2810238759706567e-03  1.2810238760180546e-03  1.2810238760707767e-03  1.2810238761292747e-03  1.2810238761939924e-03  1.2810238762654403e-03  1.2810238763443305e-03  1.2810238764318263e-03  1.2810238765300032e-03  1.2810238766425303e-03  1.2810238767755884e-03  1.2810238769390273e-03  1.2810238771475057e-03  1.2810238774212173e-03  1.2810238777855362e-03  1.2810238782687299e-03  1.2810238788969969e-03  1.2810238796865641e-03  1.2810238806338385e-03  1.2810238817059130e-03  1.2810238828350764e-03  1.2810238839213053e-03  1.2810238848448804e-03  1.2810238854880623e-03  1.2810238857606051e-03  1.2810238856211203e-03  1.2810238850867470e-03  1.2810238842277622e-03  1.2810238831496552e-03  1.2810238819694602e-03  1.2810238807940658e-03  1.2810238797056482e-03  1.2810238787558494e-03  1.2810238779674310e-03  1.2810238773404428e-03  1.2810238768600072e-03  1.2810238765035705e-03  1.2810238762464650e-03  1.2810238760654986e-03  1.2810238759408067e-03  1.2810238758564413e-03  1.2810238758001928e-03  1.2810238757630038e-03  1.2810238757383421e-03  1.2810238757215990e-03  1.2810238757095616e-03  1.2810238757000789e-03  1.2810238756917887e-03  1.2810238756839182e-03  1.2810238756761289e-03  1.2810238756683786e-03  1.2810238756608039e-03  1.2810238756536232e-03  1.2810238756470655e-03  1.2810238756412943e-03  1.2810238756364228e-03  1.2810238756325140e-03  1.2810238756295652e-03  1.2810238756275640e-03  1.2810238756265099e-03  2.5589792779812130e-03  2.5589792779696771e-03  1.2810238756197643e-03  1.2810238756197638e-03  1.2810238756197645e-03  1.2810238756197660e-03  1.2810238756197703e-03  1.2810238756197777e-03  1.2810238756197922e-03  1.2810238756198187e-03  1.2810238756198610e-03  1.2810238756199314e-03  1.2810238756200453e-03  1.2810238756202196e-03  1.2810238756204872e-03  1.2810238756208933e-03  1.2810238756214916e-03  1.2810238756223611e-03  1.2810238756236119e-03  1.2810238756253741e-03  1.2810238756278177e-03  1.2810238756311544e-03  1.2810238756356235e-03  1.2810238756414990e-03  1.2810238756490826e-03  1.2810238756586732e-03  1.2810238756705648e-03  1.2810238756850287e-03  1.2810238757022913e-03  1.2810238757225401e-03  1.2810238757459112e-03  1.2810238757725227e-03  1.2810238758024996e-03  1.2810238758359854e-03  1.2810238758731900e-03  1.2810238759144170e-03  1.2810238759600721e-03  1.2810238760106929e-03  1.2810238760669484e-03  1.2810238761296121e-03  1.2810238761995535e-03  1.2810238762777091e-03  1.2810238763650307e-03  1.2810238764624669e-03  1.2810238765709357e-03  1.2810238766913220e-03  1.2810238768245900e-03  1.2810238769720530e-03  1.2810238771359026e-03  1.2810238773201905e-03  1.2810238775323624e-03  1.2810238777854525e-03  1.2810238781009232e-03  1.2810238785117157e-03  1.2810238790645896e-03  1.2810238798201159e-03  1.2810238808481243e-03  1.2810238822163877e-03  1.2810238839715011e-03  1.2810238861138312e-03  1.2810238885722991e-03  1.2810238911885987e-03  1.2810238937215684e-03  1.2810238958782779e-03  1.2810238973694919e-03  1.2810238979757730e-03  1.2810238976023896e-03  1.2810238963024210e-03  1.2810238942595263e-03  1.2810238917386561e-03  1.2810238890243698e-03  1.2810238863672856e-03  1.2810238839511571e-03  1.2810238818829443e-03  1.2810238802008166e-03  1.2810238788918428e-03  1.2810238779119515e-03  1.2810238772032172e-03  1.2810238767062710e-03  1.2810238763676736e-03  1.2810238761432028e-03  1.2810238759983817e-03  1.2810238759074812e-03  1.2810238758518594e-03  1.2810238758183263e-03  1.2810238757977235e-03  1.2810238757838056e-03  1.2810238757725004e-03  1.2810238757613619e-03  1.2810238757491709e-03  1.2810238757356065e-03  1.2810238757209550e-03  1.2810238757058467e-03  1.2810238756910297e-03  1.2810238756772088e-03  1.2810238756649122e-03  1.2810238756544815e-03  1.2810238756460911e-03  1.2810238756397624e-03  1.2810238756354668e-03  1.2810238756331999e-03  2.5589792779923707e-03  2.5589792779696818e-03  1.2810238756197662e-03  1.2810238756197664e-03  1.2810238756197686e-03  1.2810238756197740e-03  1.2810238756197859e-03  1.2810238756198059e-03  1.2810238756198406e-03  1.2810238756199006e-03  1.2810238756199950e-03  1.2810238756201476e-03  1.2810238756203870e-03  1.2810238756207530e-03  1.2810238756213099e-03  1.2810238756221469e-03  1.2810238756233816e-03  1.2810238756251801e-03  1.2810238756277691e-03  1.2810238756314346e-03  1.2810238756365442e-03  1.2810238756435553e-03  1.2810238756529983e-03  1.2810238756654805e-03  1.2810238756816627e-03  1.2810238757022092e-03  1.2810238757277605e-03  1.2810238757588908e-03  1.2810238757960646e-03  1.2810238758396361e-03  1.2810238758898434e-03  1.2810238759468626e-03  1.2810238760108720e-03  1.2810238760821054e-03  1.2810238761609472e-03  1.2810238762480030e-03  1.2810238763441345e-03  1.2810238764505079e-03  1.2810238765685929e-03  1.2810238767001188e-03  1.2810238768470390e-03  1.2810238770114620e-03  1.2810238771955463e-03  1.2810238774014207e-03  1.2810238776310952e-03  1.2810238778864233e-03  1.2810238781692735e-03  1.2810238784820298e-03  1.2810238788286946e-03  1.2810238792169966e-03  1.2810238796618616e-03  1.2810238801906134e-03  1.2810238808499974e-03  1.2810238817142635e-03  1.2810238828922403e-03  1.2810238845294500e-03  1.2810238867994412e-03  1.2810238898779990e-03  1.2810238938963272e-03  1.2810238988765496e-03  1.2810239046638001e-03  1.2810239108804679e-03  1.2810239169322966e-03  1.2810239220861286e-03  1.2810239256147147e-03  1.2810239269718225e-03  1.2810239259368635e-03  1.2810239226711030e-03  1.2810239176634253e-03  1.2810239115926916e-03  1.2810239051643461e-03  1.2810238989767301e-03  1.2810238934469029e-03  1.2810238887970360e-03  1.2810238850838899e-03  1.2810238822484291e-03  1.2810238801668078e-03  1.2810238786916377e-03  1.2810238776796580e-03  1.2810238770067030e-03  1.2810238765731253e-03  1.2810238763032451e-03  1.2810238761418202e-03  1.2810238760495791e-03  1.2810238759991134e-03  1.2810238759715757e-03  1.2810238759542610e-03  1.2810238759390202e-03  1.2810238759211525e-03  1.2810238758985939e-03  1.2810238758712213e-03  1.2810238758402029e-03  1.2810238758073926e-03  1.2810238757748084e-03  1.2810238757442528e-03  1.2810238757170567e-03  1.2810238756940414e-03  1.2810238756755772e-03  1.2810238756616875e-03  1.2810238756522647e-03  1.2810238756472570e-03  2.5589792780158532e-03  2.5589792779696910e-03  1.2810238756197708e-03  1.2810238756197729e-03  1.2810238756197799e-03  1.2810238756197937e-03  1.2810238756198200e-03  1.2810238756198642e-03  1.2810238756199390e-03  1.2810238756200622e-03  1.2810238756202580e-03  1.2810238756205689e-03  1.2810238756210562e-03  1.2810238756218058e-03  1.2810238756229488e-03  1.2810238756246742e-03  1.2810238756272383e-03  1.2810238756310024e-03  1.2810238756364597e-03  1.2810238756442490e-03  1.2810238756551949e-03  1.2810238756703254e-03  1.2810238756908578e-03  1.2810238757181860e-03  1.2810238757538256e-03  1.2810238757993151e-03  1.2810238758561221e-03  1.2810238759255388e-03  1.2810238760085891e-03  1.2810238761060051e-03  1.2810238762182395e-03  1.2810238763455752e-03  1.2810238764882785e-03  1.2810238766467652e-03  1.2810238768218055e-03  1.2810238770146970e-03  1.2810238772273711e-03  1.2810238774624745e-03  1.2810238777233665e-03  1.2810238780140346e-03  1.2810238783389945e-03  1.2810238787031201e-03  1.2810238791114185e-03  1.2810238795687894e-03  1.2810238800797602e-03  1.2810238806483106e-03  1.2810238812780532e-03  1.2810238819731281e-03  1.2810238827404194e-03  1.2810238835940110e-03  1.2810238845629310e-03  1.2810238857033135e-03  1.2810238871155816e-03  1.2810238889655117e-03  1.2810238915047607e-03  1.2810238950813997e-03  1.2810239001253810e-03  1.2810239070908860e-03  1.2810239163422291e-03  1.2810239279877559e-03  1.2810239416965550e-03  1.2810239565660302e-03  1.2810239711232990e-03  1.2810239835197364e-03  1.2810239919115811e-03  1.2810239949283203e-03  1.2810239920578578e-03  1.2810239837830848e-03  1.2810239714125678e-03  1.2810239566938934e-03  1.2810239413797173e-03  1.2810239268961163e-03  1.2810239141811028e-03  1.2810239036809105e-03  1.2810238954475048e-03  1.2810238892745614e-03  1.2810238848257433e-03  1.2810238817316153e-03  1.2810238796498561e-03  1.2810238782942074e-03  1.2810238774416324e-03  1.2810238769269617e-03  1.2810238766321376e-03  1.2810238764746065e-03  1.2810238763973590e-03  1.2810238763614099e-03  1.2810238763406243e-03  1.2810238763184319e-03  1.2810238762856472e-03  1.2810238762388227e-03  1.2810238761787704e-03  1.2810238761090890e-03  1.2810238760347465e-03  1.2810238759608571e-03  1.2810238758917984e-03  1.2810238758306982e-03  1.2810238757793608e-03  1.2810238757384603e-03  1.2810238757078811e-03  1.2810238756872029e-03  1.2810238756761592e-03  2.5589792780640113e-03  2.5589792779697044e-03  1.2810238756197786e-03  1.2810238756197853e-03  1.2810238756198020e-03  1.2810238756198328e-03  1.2810238756198879e-03  1.2810238756199794e-03  1.2810238756201311e-03  1.2810238756203792e-03  1.2810238756207747e-03  1.2810238756214047e-03  1.2810238756223945e-03  1.2810238756239302e-03  1.2810238756262894e-03  1.2810238756298757e-03  1.2810238756352545e-03  1.2810238756432194e-03  1.2810238756548614e-03  1.2810238756716188e-03  1.2810238756953633e-03  1.2810238757284427e-03  1.2810238757736728e-03  1.2810238758342958e-03  1.2810238759138506e-03  1.2810238760159428e-03  1.2810238761439975e-03  1.2810238763009915e-03  1.2810238764892313e-03  1.2810238767102771e-03  1.2810238769649937e-03  1.2810238772538046e-03  1.2810238775770671e-03  1.2810238779355097e-03  1.2810238783307177e-03  1.2810238787655426e-03  1.2810238792443814e-03  1.2810238797733319e-03  1.2810238803601739e-03  1.2810238810141853e-03  1.2810238817458814e-03  1.2810238825666262e-03  1.2810238834881139e-03  1.2810238845217441e-03  1.2810238856778835e-03  1.2810238869652270e-03  1.2810238883907718e-03  1.2810238899612432e-03  1.2810238916873549e-03  1.2810238935930364e-03  1.2810238957323889e-03  1.2810238982176238e-03  1.2810239012605246e-03  1.2810239052264264e-03  1.2810239106919039e-03  1.2810239184841408e-03  1.2810239296634884e-03  1.2810239453987533e-03  1.2810239666917087e-03  1.2810239939503604e-03  1.2810240264937768e-03  1.2810240621695789e-03  1.2810240973168061e-03  1.2810241272508743e-03  1.2810241472682392e-03  1.2810241539094787e-03  1.2810241459958094e-03  1.2810241249587222e-03  1.2810240943133464e-03  1.2810240585668978e-03  1.2810240220666774e-03  1.2810239881878081e-03  1.2810239590025096e-03  1.2810239353536741e-03  1.2810239171578235e-03  1.2810239037697574e-03  1.2810238942994121e-03  1.2810238878343328e-03  1.2810238835661621e-03  1.2810238808421376e-03  1.2810238791683799e-03  1.2810238781881947e-03  1.2810238776517812e-03  1.2810238773870066e-03  1.2810238772759050e-03  1.2810238772379306e-03  1.2810238772191403e-03  1.2810238771856688e-03  1.2810238771195550e-03  1.2810238770154911e-03  1.2810238768776196e-03  1.2810238767161390e-03  1.2810238765439391e-03  1.2810238763736987e-03  1.2810238762158475e-03  1.2810238760775081e-03  1.2810238759624483e-03  1.2810238758716793e-03  1.2810238758044093e-03  1.2810238757591870e-03  1.2810238757349876e-03  2.5589792781617140e-03  2.5589792779697352e-03  1.2810238756197955e-03  1.2810238756198122e-03  1.2810238756198475e-03  1.2810238756199117e-03  1.2810238756200229e-03  1.2810238756202068e-03  1.2810238756205117e-03  1.2810238756210080e-03  1.2810238756218075e-03  1.2810238756230856e-03  1.2810238756251081e-03  1.2810238756282729e-03  1.2810238756331765e-03  1.2810238756406887e-03  1.2810238756520533e-03  1.2810238756690243e-03  1.2810238756940273e-03  1.2810238757303117e-03  1.2810238757821335e-03  1.2810238758548809e-03  1.2810238759550911e-03  1.2810238760903455e-03  1.2810238762689552e-03  1.2810238764994254e-03  1.2810238767898070e-03  1.2810238771470155e-03  1.2810238775762882e-03  1.2810238780809613e-03  1.2810238786626314e-03  1.2810238793217609e-03  1.2810238800586128e-03  1.2810238808743640e-03  1.2810238817722681e-03  1.2810238827586464e-03  1.2810238838435655e-03  1.2810238850411507e-03  1.2810238863695039e-03  1.2810238878502686e-03  1.2810238895079851e-03  1.2810238913692088e-03  1.2810238934613358e-03  1.2810238958110643e-03  1.2810238984424349e-03  1.2810239013748286e-03  1.2810239046219390e-03  1.2810239081935755e-03  1.2810239121034000e-03  1.2810239163874590e-03  1.2810239211404513e-03  1.2810239265786834e-03  1.2810239331384633e-03  1.2810239416120980e-03  1.2810239533058037e-03  1.2810239701700954e-03  1.2810239948062457e-03  1.2810240302098886e-03  1.2810240791147690e-03  1.2810241429001019e-03  1.2810242202520856e-03  1.2810243060607440e-03  1.2810243912068167e-03  1.2810244637626431e-03  1.2810245116527271e-03  1.2810245260885139e-03  1.2810245043912772e-03  1.2810244507792884e-03  1.2810243747290134e-03  1.2810242878777305e-03  1.2810242009727807e-03  1.2810241219205131e-03  1.2810240551817333e-03  1.2810240021805656e-03  1.2810239622048874e-03  1.2810239333632865e-03  1.2810239133511795e-03  1.2810238999472938e-03  1.2810238912665728e-03  1.2810238858384795e-03  1.2810238825826791e-03  1.2810238807382339e-03  1.2810238797826804e-03  1.2810238793605243e-03  1.2810238792290815e-03  1.2810238792221255e-03  1.2810238792279483e-03  1.2810238791770311e-03  1.2810238790344603e-03  1.2810238787935775e-03  1.2810238784689552e-03  1.2810238780883994e-03  1.2810238776848300e-03  1.2810238772893421e-03  1.2810238769264981e-03  1.2810238766121996e-03  1.2810238763539348e-03  1.2810238761525785e-03  1.2810238760049273e-03  1.2810238759064434e-03  1.2810238758537763e-03  2.5589792783582829e-03  2.5589792779697942e-03  1.2810238756198297e-03  1.2810238756198662e-03  1.2810238756199388e-03  1.2810238756200674e-03  1.2810238756202879e-03  1.2810238756206550e-03  1.2810238756212635e-03  1.2810238756222614e-03  1.2810238756238797e-03  1.2810238756264854e-03  1.2810238756306401e-03  1.2810238756371948e-03  1.2810238756474316e-03  1.2810238756632386e-03  1.2810238756873419e-03  1.2810238757236213e-03  1.2810238757774790e-03  1.2810238758562411e-03  1.2810238759695931e-03  1.2810238761299178e-03  1.28102387635