<?xml version="1.0"?>
<VTKFile type="UnstructuredGrid"  version="0.1"  >
<UnstructuredGrid>
<Piece  NumberOfPoints="5151" NumberOfCells="10000">
<Points>
<DataArray  type="Float64"  NumberOfComponents="3"  format="ascii">0 0 0  0.02 0 0  0.04 0 0  0.06 0 0  0.08 0 0  0.1 0 0  0.12 0 0  0.14 0 0  0.16 0 0  0.18 0 0  0.2 0 0  0.22 0 0  0.24 0 0  0.26 0 0  0.28 0 0  0.3 0 0  0.32 0 0  0.34 0 0  0.36 0 0  0.38 0 0  0.4 0 0  0.42 0 0  0.44 0 0  0.46 0 0  0.48 0 0  0.5 0 0  0.52 0 0  0.54 0 0  0.5600000000000001 0 0  0.58 0 0  0.6 0 0  0.62 0 0  0.64 0 0  0.66 0 0  0.68 0 0  0.7 0 0  0.72 0 0  0.74 0 0  0.76 0 0  0.78 0 0  0.8 0 0  0.82 0 0  0.84 0 0  0.86 0 0  0.88 0 0  0.9 0 0  0.92 0 0  0.9399999999999999 0 0  0.96 0 0  0.98 0 0  1 0 0  1.02 0 0  1.04 0 0  1.06 0 0  1.08 0 0  1.1 0 0  1.12 0 0  1.14 0 0  1.16 0 0  1.18 0 0  1.2 0 0  1.22 0 0  1.24 0 0  1.26 0 0  1.28 0 0  1.3 0 0  1.32 0 0  1.34 0 0  1.36 0 0  1.38 0 0  1.4 0 0  1.42 0 0  1.44 0 0  1.46 0 0  1.48 0 0  1.5 0 0  1.52 0 0  1.54 0 0  1.56 0 0  1.58 0 0  1.6 0 0  1.62 0 0  1.64 0 0  1.66 0 0  1.68 0 0  1.7 0 0  1.72 0 0  1.74 0 0  1.76 0 0  1.78 0 0  1.8 0 0  1.82 0 0  1.84 0 0  1.86 0 0  1.88 0 0  1.9 0 0  1.92 0 0  1.94 0 0  1.96 0 0  1.98 0 0  2 0 0  0 0.02 0  0.02 0.02 0  0.04 0.02 0  0.06 0.02 0  0.08 0.02 0  0.1 0.02 0  0.12 0.02 0  0.14 0.02 0  0.16 0.02 0  0.18 0.02 0  0.2 0.02 0  0.22 0.02 0  0.24 0.02 0  0.26 0.02 0  0.28 0.02 0  0.3 0.02 0  0.32 0.02 0  0.34 0.02 0  0.36 0.02 0  0.38 0.02 0  0.4 0.02 0  0.42 0.02 0  0.44 0.02 0  0.46 0.02 0  0.48 0.02 0  0.5 0.02 0  0.52 0.02 0  0.54 0.02 0  0.5600000000000001 0.02 0  0.58 0.02 0  0.6 0.02 0  0.62 0.02 0  0.64 0.02 0  0.66 0.02 0  0.68 0.02 0  0.7 0.02 0  0.72 0.02 0  0.74 0.02 0  0.76 0.02 0  0.78 0.02 0  0.8 0.02 0  0.82 0.02 0  0.84 0.02 0  0.86 0.02 0  0.88 0.02 0  0.9 0.02 0  0.92 0.02 0  0.9399999999999999 0.02 0  0.96 0.02 0  0.98 0.02 0  1 0.02 0  1.02 0.02 0  1.04 0.02 0  1.06 0.02 0  1.08 0.02 0  1.1 0.02 0  1.12 0.02 0  1.14 0.02 0  1.16 0.02 0  1.18 0.02 0  1.2 0.02 0  1.22 0.02 0  1.24 0.02 0  1.26 0.02 0  1.28 0.02 0  1.3 0.02 0  1.32 0.02 0  1.34 0.02 0  1.36 0.02 0  1.38 0.02 0  1.4 0.02 0  1.42 0.02 0  1.44 0.02 0  1.46 0.02 0  1.48 0.02 0  1.5 0.02 0  1.52 0.02 0  1.54 0.02 0  1.56 0.02 0  1.58 0.02 0  1.6 0.02 0  1.62 0.02 0  1.64 0.02 0  1.66 0.02 0  1.68 0.02 0  1.7 0.02 0  1.72 0.02 0  1.74 0.02 0  1.76 0.02 0  1.78 0.02 0  1.8 0.02 0  1.82 0.02 0  1.84 0.02 0  1.86 0.02 0  1.88 0.02 0  1.9 0.02 0  1.92 0.02 0  1.94 0.02 0  1.96 0.02 0  1.98 0.02 0  2 0.02 0  0 0.04 0  0.02 0.04 0  0.04 0.04 0  0.06 0.04 0  0.08 0.04 0  0.1 0.04 0  0.12 0.04 0  0.14 0.04 0  0.16 0.04 0  0.18 0.04 0  0.2 0.04 0  0.22 0.04 0  0.24 0.04 0  0.26 0.04 0  0.28 0.04 0  0.3 0.04 0  0.32 0.04 0  0.34 0.04 0  0.36 0.04 0  0.38 0.04 0  0.4 0.04 0  0.42 0.04 0  0.44 0.04 0  0.46 0.04 0  0.48 0.04 0  0.5 0.04 0  0.52 0.04 0  0.54 0.04 0  0.5600000000000001 0.04 0  0.58 0.04 0  0.6 0.04 0  0.62 0.04 0  0.64 0.04 0  0.66 0.04 0  0.68 0.04 0  0.7 0.04 0  0.72 0.04 0  0.74 0.04 0  0.76 0.04 0  0.78 0.04 0  0.8 0.04 0  0.82 0.04 0  0.84 0.04 0  0.86 0.04 0  0.88 0.04 0  0.9 0.04 0  0.92 0.04 0  0.9399999999999999 0.04 0  0.96 0.04 0  0.98 0.04 0  1 0.04 0  1.02 0.04 0  1.04 0.04 0  1.06 0.04 0  1.08 0.04 0  1.1 0.04 0  1.12 0.04 0  1.14 0.04 0  1.16 0.04 0  1.18 0.04 0  1.2 0.04 0  1.22 0.04 0  1.24 0.04 0  1.26 0.04 0  1.28 0.04 0  1.3 0.04 0  1.32 0.04 0  1.34 0.04 0  1.36 0.04 0  1.38 0.04 0  1.4 0.04 0  1.42 0.04 0  1.44 0.04 0  1.46 0.04 0  1.48 0.04 0  1.5 0.04 0  1.52 0.04 0  1.54 0.04 0  1.56 0.04 0  1.58 0.04 0  1.6 0.04 0  1.62 0.04 0  1.64 0.04 0  1.66 0.04 0  1.68 0.04 0  1.7 0.04 0  1.72 0.04 0  1.74 0.04 0  1.76 0.04 0  1.78 0.04 0  1.8 0.04 0  1.82 0.04 0  1.84 0.04 0  1.86 0.04 0  1.88 0.04 0  1.9 0.04 0  1.92 0.04 0  1.94 0.04 0  1.96 0.04 0  1.98 0.04 0  2 0.04 0  0 0.06 0  0.02 0.06 0  0.04 0.06 0  0.06 0.06 0  0.08 0.06 0  0.1 0.06 0  0.12 0.06 0  0.14 0.06 0  0.16 0.06 0  0.18 0.06 0  0.2 0.06 0  0.22 0.06 0  0.24 0.06 0  0.26 0.06 0  0.28 0.06 0  0.3 0.06 0  0.32 0.06 0  0.34 0.06 0  0.36 0.06 0  0.38 0.06 0  0.4 0.06 0  0.42 0.06 0  0.44 0.06 0  0.46 0.06 0  0.48 0.06 0  0.5 0.06 0  0.52 0.06 0  0.54 0.06 0  0.5600000000000001 0.06 0  0.58 0.06 0  0.6 0.06 0  0.62 0.06 0  0.64 0.06 0  0.66 0.06 0  0.68 0.06 0  0.7 0.06 0  0.72 0.06 0  0.74 0.06 0  0.76 0.06 0  0.78 0.06 0  0.8 0.06 0  0.82 0.06 0  0.84 0.06 0  0.86 0.06 0  0.88 0.06 0  0.9 0.06 0  0.92 0.06 0  0.9399999999999999 0.06 0  0.96 0.06 0  0.98 0.06 0  1 0.06 0  1.02 0.06 0  1.04 0.06 0  1.06 0.06 0  1.08 0.06 0  1.1 0.06 0  1.12 0.06 0  1.14 0.06 0  1.16 0.06 0  1.18 0.06 0  1.2 0.06 0  1.22 0.06 0  1.24 0.06 0  1.26 0.06 0  1.28 0.06 0  1.3 0.06 0  1.32 0.06 0  1.34 0.06 0  1.36 0.06 0  1.38 0.06 0  1.4 0.06 0  1.42 0.06 0  1.44 0.06 0  1.46 0.06 0  1.48 0.06 0  1.5 0.06 0  1.52 0.06 0  1.54 0.06 0  1.56 0.06 0  1.58 0.06 0  1.6 0.06 0  1.62 0.06 0  1.64 0.06 0  1.66 0.06 0  1.68 0.06 0  1.7 0.06 0  1.72 0.06 0  1.74 0.06 0  1.76 0.06 0  1.78 0.06 0  1.8 0.06 0  1.82 0.06 0  1.84 0.06 0  1.86 0.06 0  1.88 0.06 0  1.9 0.06 0  1.92 0.06 0  1.94 0.06 0  1.96 0.06 0  1.98 0.06 0  2 0.06 0  0 0.08 0  0.02 0.08 0  0.04 0.08 0  0.06 0.08 0  0.08 0.08 0  0.1 0.08 0  0.12 0.08 0  0.14 0.08 0  0.16 0.08 0  0.18 0.08 0  0.2 0.08 0  0.22 0.08 0  0.24 0.08 0  0.26 0.08 0  0.28 0.08 0  0.3 0.08 0  0.32 0.08 0  0.34 0.08 0  0.36 0.08 0  0.38 0.08 0  0.4 0.08 0  0.42 0.08 0  0.44 0.08 0  0.46 0.08 0  0.48 0.08 0  0.5 0.08 0  0.52 0.08 0  0.54 0.08 0  0.5600000000000001 0.08 0  0.58 0.08 0  0.6 0.08 0  0.62 0.08 0  0.64 0.08 0  0.66 0.08 0  0.68 0.08 0  0.7 0.08 0  0.72 0.08 0  0.74 0.08 0  0.76 0.08 0  0.78 0.08 0  0.8 0.08 0  0.82 0.08 0  0.84 0.08 0  0.86 0.08 0  0.88 0.08 0  0.9 0.08 0  0.92 0.08 0  0.9399999999999999 0.08 0  0.96 0.08 0  0.98 0.08 0  1 0.08 0  1.02 0.08 0  1.04 0.08 0  1.06 0.08 0  1.08 0.08 0  1.1 0.08 0  1.12 0.08 0  1.14 0.08 0  1.16 0.08 0  1.18 0.08 0  1.2 0.08 0  1.22 0.08 0  1.24 0.08 0  1.26 0.08 0  1.28 0.08 0  1.3 0.08 0  1.32 0.08 0  1.34 0.08 0  1.36 0.08 0  1.38 0.08 0  1.4 0.08 0  1.42 0.08 0  1.44 0.08 0  1.46 0.08 0  1.48 0.08 0  1.5 0.08 0  1.52 0.08 0  1.54 0.08 0  1.56 0.08 0  1.58 0.08 0  1.6 0.08 0  1.62 0.08 0  1.64 0.08 0  1.66 0.08 0  1.68 0.08 0  1.7 0.08 0  1.72 0.08 0  1.74 0.08 0  1.76 0.08 0  1.78 0.08 0  1.8 0.08 0  1.82 0.08 0  1.84 0.08 0  1.86 0.08 0  1.88 0.08 0  1.9 0.08 0  1.92 0.08 0  1.94 0.08 0  1.96 0.08 0  1.98 0.08 0  2 0.08 0  0 0.1 0  0.02 0.1 0  0.04 0.1 0  0.06 0.1 0  0.08 0.1 0  0.1 0.1 0  0.12 0.1 0  0.14 0.1 0  0.16 0.1 0  0.18 0.1 0  0.2 0.1 0  0.22 0.1 0  0.24 0.1 0  0.26 0.1 0  0.28 0.1 0  0.3 0.1 0  0.32 0.1 0  0.34 0.1 0  0.36 0.1 0  0.38 0.1 0  0.4 0.1 0  0.42 0.1 0  0.44 0.1 0  0.46 0.1 0  0.48 0.1 0  0.5 0.1 0  0.52 0.1 0  0.54 0.1 0  0.5600000000000001 0.1 0  0.58 0.1 0  0.6 0.1 0  0.62 0.1 0  0.64 0.1 0  0.66 0.1 0  0.68 0.1 0  0.7 0.1 0  0.72 0.1 0  0.74 0.1 0  0.76 0.1 0  0.78 0.1 0  0.8 0.1 0  0.82 0.1 0  0.84 0.1 0  0.86 0.1 0  0.88 0.1 0  0.9 0.1 0  0.92 0.1 0  0.9399999999999999 0.1 0  0.96 0.1 0  0.98 0.1 0  1 0.1 0  1.02 0.1 0  1.04 0.1 0  1.06 0.1 0  1.08 0.1 0  1.1 0.1 0  1.12 0.1 0  1.14 0.1 0  1.16 0.1 0  1.18 0.1 0  1.2 0.1 0  1.22 0.1 0  1.24 0.1 0  1.26 0.1 0  1.28 0.1 0  1.3 0.1 0  1.32 0.1 0  1.34 0.1 0  1.36 0.1 0  1.38 0.1 0  1.4 0.1 0  1.42 0.1 0  1.44 0.1 0  1.46 0.1 0  1.48 0.1 0  1.5 0.1 0  1.52 0.1 0  1.54 0.1 0  1.56 0.1 0  1.58 0.1 0  1.6 0.1 0  1.62 0.1 0  1.64 0.1 0  1.66 0.1 0  1.68 0.1 0  1.7 0.1 0  1.72 0.1 0  1.74 0.1 0  1.76 0.1 0  1.78 0.1 0  1.8 0.1 0  1.82 0.1 0  1.84 0.1 0  1.86 0.1 0  1.88 0.1 0  1.9 0.1 0  1.92 0.1 0  1.94 0.1 0  1.96 0.1 0  1.98 0.1 0  2 0.1 0  0 0.12 0  0.02 0.12 0  0.04 0.12 0  0.06 0.12 0  0.08 0.12 0  0.1 0.12 0  0.12 0.12 0  0.14 0.12 0  0.16 0.12 0  0.18 0.12 0  0.2 0.12 0  0.22 0.12 0  0.24 0.12 0  0.26 0.12 0  0.28 0.12 0  0.3 0.12 0  0.32 0.12 0  0.34 0.12 0  0.36 0.12 0  0.38 0.12 0  0.4 0.12 0  0.42 0.12 0  0.44 0.12 0  0.46 0.12 0  0.48 0.12 0  0.5 0.12 0  0.52 0.12 0  0.54 0.12 0  0.5600000000000001 0.12 0  0.58 0.12 0  0.6 0.12 0  0.62 0.12 0  0.64 0.12 0  0.66 0.12 0  0.68 0.12 0  0.7 0.12 0  0.72 0.12 0  0.74 0.12 0  0.76 0.12 0  0.78 0.12 0  0.8 0.12 0  0.82 0.12 0  0.84 0.12 0  0.86 0.12 0  0.88 0.12 0  0.9 0.12 0  0.92 0.12 0  0.9399999999999999 0.12 0  0.96 0.12 0  0.98 0.12 0  1 0.12 0  1.02 0.12 0  1.04 0.12 0  1.06 0.12 0  1.08 0.12 0  1.1 0.12 0  1.12 0.12 0  1.14 0.12 0  1.16 0.12 0  1.18 0.12 0  1.2 0.12 0  1.22 0.12 0  1.24 0.12 0  1.26 0.12 0  1.28 0.12 0  1.3 0.12 0  1.32 0.12 0  1.34 0.12 0  1.36 0.12 0  1.38 0.12 0  1.4 0.12 0  1.42 0.12 0  1.44 0.12 0  1.46 0.12 0  1.48 0.12 0  1.5 0.12 0  1.52 0.12 0  1.54 0.12 0  1.56 0.12 0  1.58 0.12 0  1.6 0.12 0  1.62 0.12 0  1.64 0.12 0  1.66 0.12 0  1.68 0.12 0  1.7 0.12 0  1.72 0.12 0  1.74 0.12 0  1.76 0.12 0  1.78 0.12 0  1.8 0.12 0  1.82 0.12 0  1.84 0.12 0  1.86 0.12 0  1.88 0.12 0  1.9 0.12 0  1.92 0.12 0  1.94 0.12 0  1.96 0.12 0  1.98 0.12 0  2 0.12 0  0 0.14 0  0.02 0.14 0  0.04 0.14 0  0.06 0.14 0  0.08 0.14 0  0.1 0.14 0  0.12 0.14 0  0.14 0.14 0  0.16 0.14 0  0.18 0.14 0  0.2 0.14 0  0.22 0.14 0  0.24 0.14 0  0.26 0.14 0  0.28 0.14 0  0.3 0.14 0  0.32 0.14 0  0.34 0.14 0  0.36 0.14 0  0.38 0.14 0  0.4 0.14 0  0.42 0.14 0  0.44 0.14 0  0.46 0.14 0  0.48 0.14 0  0.5 0.14 0  0.52 0.14 0  0.54 0.14 0  0.5600000000000001 0.14 0  0.58 0.14 0  0.6 0.14 0  0.62 0.14 0  0.64 0.14 0  0.66 0.14 0  0.68 0.14 0  0.7 0.14 0  0.72 0.14 0  0.74 0.14 0  0.76 0.14 0  0.78 0.14 0  0.8 0.14 0  0.82 0.14 0  0.84 0.14 0  0.86 0.14 0  0.88 0.14 0  0.9 0.14 0  0.92 0.14 0  0.9399999999999999 0.14 0  0.96 0.14 0  0.98 0.14 0  1 0.14 0  1.02 0.14 0  1.04 0.14 0  1.06 0.14 0  1.08 0.14 0  1.1 0.14 0  1.12 0.14 0  1.14 0.14 0  1.16 0.14 0  1.18 0.14 0  1.2 0.14 0  1.22 0.14 0  1.24 0.14 0  1.26 0.14 0  1.28 0.14 0  1.3 0.14 0  1.32 0.14 0  1.34 0.14 0  1.36 0.14 0  1.38 0.14 0  1.4 0.14 0  1.42 0.14 0  1.44 0.14 0  1.46 0.14 0  1.48 0.14 0  1
[...]
<PointData  Scalars="sols[i]"> 
<DataArray  type="Float64"  Name="sols[i]"  format="ascii">3.8009871460866151e-01  3.3404036981914809e-01  3.3404037976861700e-01  3.3404039712110056e-01  3.3404042404323148e-01  3.3404046458089787e-01  3.3404052498380715e-01  3.3404061342003311e-01  3.3404073983765403e-01  3.3404091641404443e-01  3.3404115874450724e-01  3.3404148776989923e-01  3.3404193233419838e-01  3.3404253216254437e-01  3.3404334096068006e-01  3.3404442927133920e-01  3.3404588669382729e-01  3.3404782309008524e-01  3.3405036846980629e-01  3.3405367136831360e-01  3.3405789569627609e-01  3.3406321623203039e-01  3.3406981312092221e-01  3.3407786591152494e-01  3.3408754776734018e-01  3.3409902052118362e-01  3.3411243117633266e-01  3.3412791030624911e-01  3.3414557258081573e-01  3.3416551938056227e-01  3.3418784318909911e-01  3.3421263321598293e-01  3.3423998153165513e-01  3.3426998891599219e-01  3.3430276963984851e-01  3.3433845450672595e-01  3.3437719165634228e-01  3.3441914484208141e-01  3.3446448910617876e-01  3.3451340395909113e-01  3.3456606429946623e-01  3.3462262937360460e-01  3.3468323006654643e-01  3.3474795474708513e-01  3.3481683377711358e-01  3.3488982267449624e-01  3.3496678383278211e-01  3.3504746670544366e-01  3.3513148651639718e-01  3.3521830191844476e-01  3.3530719262720582e-01  3.3539723891225598e-01  3.3548730586129749e-01  3.3557603636538802e-01  3.3566185748129856e-01  3.3574300477673674e-01  3.3581756804962853e-01  3.3588355929422009e-01  3.3593900032030127e-01  3.3598202389075071e-01  3.3601097969855209e-01  3.3602453567164176e-01  3.3602176593744498e-01  3.3600221842342415e-01  3.3596595659036743e-01  3.3591357115144188e-01  3.3584615948468544e-01  3.3576527321939764e-01  3.3567283788536523e-01  3.3557105178427782e-01  3.3546227354592867e-01  3.3534890863166633e-01  3.3523330424464670e-01  3.3511766000371962e-01  3.3500395890456941e-01  3.3489392017008213e-01  3.3478897311188771e-01  3.3469024938805630e-01  3.3459859010367132e-01  3.3451456393538148e-01  3.3443849265820930e-01  3.3437048090647814e-01  3.3431044756008443e-01  3.3425815672956782e-01  3.3421324688710480e-01  3.3417525724867642e-01  3.3414365104780885e-01  3.3411783583259586e-01  3.3409718133183769e-01  3.3408103573175457e-01  3.3406874134037789e-01  3.3405965055113096e-01  3.3405314271224751e-01  3.3404864193638850e-01  3.3404563505016482e-01  3.3404368786907856e-01  3.3404245702748869e-01  3.3404169420450275e-01  3.3404124057318807e-01  3.3404101146530241e-01  4.3552735975575058e-01  3.3404037095299749e-01  2.3598248835861291e-01  2.3598250028041606e-01  2.3598252392800656e-01  2.3598256512486621e-01  2.3598263264281255e-01  2.3598273928588195e-01  2.3598290323054405e-01  2.3598314940646703e-01  2.3598351090839020e-01  2.3598403047872135e-01  2.3598476207363422e-01  2.3598577247372376e-01  2.3598714284457081e-01  2.3598897010391434e-01  2.3599136791804529e-01  2.3599446713633615e-01  2.3599841548413214e-01  2.3600337637351243e-01  2.3600952675891951e-01  2.3601705405637174e-01  2.3602615225277446e-01  2.3603701744262928e-01  2.3604984312740390e-01  2.3606481568136201e-01  2.3608211041158250e-01  2.3610188861029591e-01  2.3612429591209899e-01  2.3614946213354249e-01  2.3617750260301007e-01  2.3620852080584470e-01  2.3624261199763233e-01  2.3627986730110012e-01  2.3632037771768194e-01  2.3636423746321100e-01  2.3641154607772580e-01  2.3646240885157407e-01  2.3651693523649514e-01  2.3657523505093098e-01  2.3663741242475247e-01  2.3670355754183020e-01  2.3677373632195953e-01  2.3684797823274378e-01  2.3692626243544596e-01  2.3700850246368466e-01  2.3709452962450547e-01  2.3718407532657537e-01  2.3727675261312814e-01  2.3737203734340112e-01  2.3746924975403594e-01  2.3756753755057605e-01  2.3766586220390729e-01  2.3776299068595691e-01  2.3785749535254905e-01  2.3794776491201672e-01  2.3803202924462818e-01  2.3810840014171700e-01  2.3817492878407417e-01  2.3822967906493078e-01  2.3827081390166005e-01  2.3829668978036492e-01  2.3830595322898071e-01  2.3829763192428779e-01  2.3827121263168635e-01  2.3822669806540930e-01  2.3816463542976790e-01  2.3808611145024247e-01  2.3799271216164841e-01  2.3788644991306829e-01  2.3776966402194027e-01  2.3764490445383468e-01  2.3751480935147778e-01  2.3738198706540642e-01  2.3724891172687465e-01  2.3711783877558162e-01  2.3699074379026602e-01  2.3686928505475754e-01  2.3675478796619398e-01  2.3664824786726651e-01  2.3655034715220796e-01  2.3646148240225623e-01  2.3638179764277972e-01  2.3631122039265132e-01  2.3624949786319824e-01  2.3619623138033263e-01  2.3615090780701592e-01  2.3611292740464263e-01  2.3608162815872077e-01  2.3605630706697189e-01  2.3603623920432948e-01  2.3602069549973081e-01  2.3600896005217356e-01  2.3600034746025589e-01  2.3599422005434889e-01  2.3599000418658311e-01  2.3598720405858808e-01  2.3598541131603679e-01  2.3598430921921057e-01  2.3598367132011755e-01  2.3598335130209930e-01  3.3404101426863669e-01  3.3404038447330270e-01  2.3598249978391148e-01  2.3598251682051691e-01  2.3598255166573970e-01  2.3598261250673136e-01  2.3598271067475959e-01  2.3598286093032828e-01  2.3598308231311571e-01  2.3598339931465317e-01  2.3598384315293153e-01  2.3598445304179663e-01  2.3598527740241015e-01  2.3598637496995070e-01  2.3598781573062369e-01  2.3598968160124001e-01  2.3599206674830839e-01  2.3599507744282933e-01  2.3599883136396493e-01  2.3600345630023606e-01  2.3600908824872963e-01  2.3601586897622906e-01  2.3602394317365966e-01  2.3603345539736226e-01  2.3604454703758215e-01  2.3605735357747426e-01  2.3607200239844905e-01  2.3608861134724896e-01  2.3610728820915761e-01  2.3612813113609771e-01  2.3615122996854865e-01  2.3617666827873296e-01  2.3620452586330848e-01  2.3623488133982531e-01  2.3626781446210432e-01  2.3630340776989278e-01  2.3634174722572154e-01  2.3638292155985691e-01  2.3642702013217601e-01  2.3647412921573804e-01  2.3652432669952744e-01  2.3657767528681167e-01  2.3663421432463203e-01  2.3669395043583319e-01  2.3675684713586803e-01  2.3682281361403082e-01  2.3689169285062053e-01  2.3696324924859596e-01  2.3703715600285563e-01  2.3711298253580571e-01  2.3719018251252844e-01  2.3726808321683451e-01  2.3734587740198310e-01  2.3742261907802409e-01  2.3749722498269196e-01  2.3756848360526148e-01  2.3763507349534174e-01  2.3769559212485034e-01  2.3774859577230417e-01  2.3779264982961709e-01  2.3782638774928558e-01  2.3784857575828774e-01  2.3785817960821959e-01  2.3785442907362994e-01  2.3783687536021603e-01  2.3780543590322181e-01  2.3776042085255761e-01  2.3770253665738528e-01  2.3763286460175970e-01  2.3755281522158175e-01  2.3746406246764473e-01  2.3736846371296597e-01  2.3726797294958935e-01  2.3716455469212677e-01  2.3706010526662583e-01  2.3695638654190015e-01  2.3685497512565851e-01  2.3675722801190374e-01  2.3666426396412865e-01  2.3657695873174817e-01  2.3649595154733644e-01  2.3642166014965055e-01  2.3635430168610411e-01  2.3629391713990480e-01  2.3624039731040530e-01  2.3619350879744105e-01  2.3615291887465981e-01  2.3611821856167409e-01  2.3608894359105165e-01  2.3606459327319726e-01  2.3604464744638615e-01  2.3602858172503471e-01  2.3601588111330019e-01  2.3600605176185840e-01  2.3599863031810309e-01  2.3599319018853493e-01  2.3598934449803732e-01  2.3598674705939265e-01  2.3598509521729030e-01  2.3598413936958629e-01  2.3598368796409219e-01  3.3404125596374906e-01  3.3404041003557583e-01  2.3598252222526650e-01  2.3598255021465236e-01  2.3598260547905797e-01  2.3598269815954515e-01  2.3598284190978647e-01  2.3598305364464617e-01  2.3598335380933097e-01  2.3598376721088449e-01  2.3598432407143127e-01  2.3598506105948214e-01  2.3598602216667613e-01  2.3598725935680304e-01  2.3598883293493991e-01  2.3599081158942514e-01  2.3599327206473159e-01  2.3599629843725475e-01  2.3599998099155123e-01  2.3600441473035888e-01  2.3600969759362139e-01  2.3601592850352038e-01  2.3602320538639451e-01  2.3603162334140929e-01  2.3604127312493389e-01  2.3605224009695475e-01  2.3606460373324845e-01  2.3607843774904946e-01  2.3609381081383993e-01  2.3611078777000821e-01  2.3612943120777347e-01  2.3614980320063267e-01  2.3617196697454063e-01  2.3619598827337163e-01  2.3622193619374654e-01  2.3624988329185459e-01  2.3627990480886385e-01  2.3631207691470602e-01  2.3634647392743816e-01  2.3638316452283681e-01  2.3642220700222616e-01  2.3646364373138445e-01  2.3650749489580497e-01  2.3655375173502421e-01  2.3660236941794727e-01  2.3665325970867157e-01  2.3670628355234710e-01  2.3676124369610277e-01  2.3681787746633648e-01  2.3687584986641264e-01  2.3693474725054198e-01  2.3699407197398042e-01  2.3705323860530014e-01  2.3711157248439452e-01  2.3716831157374929e-01  2.3722261262467489e-01  2.3727356261341712e-01  2.3732019616324493e-01  2.3736151925556770e-01  2.3739653898151208e-01  2.3742429851035074e-01  2.3744391599908926e-01  2.3745462588746180e-01  2.3745582090575676e-01  2.3744709252886240e-01  2.3742826626772615e-01  2.3739942713578904e-01  2.3736093103042899e-01  2.3731339954200081e-01  2.3725769797614776e-01  2.3719489844521585e-01  2.3712623144465311e-01  2.3705303032282271e-01  2.3697667346001136e-01  2.3689852875863060e-01  2.3681990425177624e-01  2.3674200744680626e-01  2.3666591471515558e-01  2.3659255088219056e-01  2.3652267832090834e-01  2.3645689434639081e-01  2.3639563548673292e-01  2.3633918717349858e-01  2.3628769746068007e-01  2.3624119349033015e-01  2.3619959955486816e-01  2.3616275576211071e-01  2.3613043649041437e-01  2.3610236801004453e-01  2.3607824480291068e-01  2.3605774418844611e-01  2.3604053882538722e-01  2.3602630651370210e-01  2.3601473654293925e-01  2.3600553180842102e-01  2.3599840638914635e-01  2.3599307976353193e-01  2.3598927181864521e-01  2.3598670696121571e-01  2.3598513685018183e-01  2.3598436424908423e-01  3.3404173861223602e-01  3.3404045422924644e-01  2.3598256065918494e-01  2.3598260712027042e-01  2.3598269285604206e-01  2.3598282913558311e-01  2.3598303136127866e-01  2.3598331843035950e-01  2.3598371248338204e-01  2.3598423937835011e-01  2.3598492948938093e-01  2.3598581849595990e-01  2.3598694796414760e-01  2.3598836561407738e-01  2.3599012521885687e-01  2.3599228610934275e-01  2.3599491228422020e-01  2.3599807115455018e-01  2.3600183198873192e-01  2.3600626416479037e-01  2.3601143537604607e-01  2.3601740996483087e-01  2.3602424756833232e-01  2.3603200224437842e-01  2.3604072220184436e-01  2.3605045019472984e-01  2.3606122455943965e-01  2.3607308079369532e-01  2.3608605350533574e-01  2.3610017851009069e-01  2.3611549483493738e-01  2.3613204638836854e-01  2.3614988308851587e-01  2.3616906128931245e-01  2.3618964340581899e-01  2.3621169670227049e-01  2.3623529126172677e-01  2.3626049719983533e-01  2.3628738121749399e-01  2.3631600261125535e-01  2.3634640887905972e-01  2.3637863107295418e-01  2.3641267905783309e-01  2.3644853683279413e-01  2.3648615805560474e-01  2.3652546188164580e-01  2.3656632918897444e-01  2.3660859921863669e-01  2.3665206662546112e-01  2.3669647892215864e-01  2.3674153432079140e-01  2.3678688003707704e-01  2.3683211122145825e-01  2.3687677080125108e-01  2.3692035063392969e-01  2.3696229445075839e-01  2.3700200308466432e-01  2.3703884241106288e-01  2.3707215427800213e-01  2.3710127047207802e-01  2.3712552958455185e-01  2.3714429666748452e-01  2.3715698580100375e-01  2.3716308612188419e-01  2.3716219117870785e-01  2.3715402918881634e-01  2.3713848974045454e-01  2.3711564248060141e-01  2.3708574492086071e-01  2.3704923836589042e-01  2.3700673244937501e-01  2.3695897980873076e-01  2.3690684323404149e-01  2.3685125824426478e-01  2.3679319431993415e-01  2.3673361780806193e-01  2.3667345885867577e-01  2.3661358387858789e-01  2.3655477415721654e-01  2.3649771070489350e-01  2.3644296498937209e-01  2.3639099510148689e-01  2.3634214682091620e-01  2.3629665899710209e-01  2.3625467256829835e-01  2.3621624242296785e-01  2.3618135120590972e-01  2.3614992412943581e-01  2.3612184387383045e-01  2.3609696471298144e-01  2.3607512502255740e-01  2.3605615728063079e-01  2.3603989457311697e-01  2.3602617257916608e-01  2.3601482627098475e-01  2.3600568150740917e-01  2.3599854386321845e-01  2.3599319091715373e-01  2.3598937964986458e-01  2.3598688385334490e-01  2.3598554821414197e-01  3.3404256183687064e-01  3.3404052900956699e-01  2.3598262199363351e-01  2.3598269558014301e-01  2.3598282217356245e-01  2.3598301313990944e-01  2.3598328506658356e-01  2.3598365856337056e-01  2.3598415757089375e-01  2.3598480952294418e-01  2.3598564589235405e-01  2.3598670273738914e-01  2.3598802100697402e-01  2.3598964646868592e-01  2.3599162919245598e-01  2.3599402257185564e-01  2.3599688190875029e-01  2.3600026263426749e-01  2.3600421829075993e-01  2.3600879845120570e-01  2.3601404679550567e-01  2.3601999958606437e-01  2.3602668477544617e-01  2.3603412193037254e-01  2.3604232307113243e-01  2.3605129441356593e-01  2.3606103887882579e-01  2.3607155912456723e-01  2.3608286076955776e-01  2.3609495544619957e-01  2.3610786332680833e-01  2.3612161482598104e-01  2.3613625127379784e-01  2.3615182446902877e-01  2.3616839513888357e-01  2.3618603043126676e-01  2.3620480063215249e-01  2.3622477533145991e-01  2.3624601926324457e-01  2.3626858803286052e-01  2.3629252392626085e-01  2.3631785198005045e-01  2.3634457647454782e-01  2.3637267799144104e-01  2.3640211114604956e-01  2.3643280305872341e-01  2.3646465256932117e-01  2.3649753012898439e-01  2.3653127823337933e-01  2.3656571220443656e-01  2.3660062109797070e-01  2.3663576852387797e-01  2.3667089321790324e-01  2.3670570929254964e-01  2.3673990620213889e-01  2.3677314856071063e-01  2.3680507603376649e-01  2.3683530357764337e-01  2.3686342230476698e-01  2.3688900119252121e-01  2.3691158993087508e-01  2.3693072366351606e-01  2.3694593118566720e-01  2.3695674945593589e-01  2.3696274636130038e-01  2.3696354976357620e-01  2.3695887756896777e-01  2.3694856361454397e-01  2.3693257617316960e-01  2.3691102765947297e-01  2.3688417512041543e-01  2.3685241166434490e-01  2.3681624964985176e-01  2.3677629734589434e-01  2.3673323153373027e-01  2.3668776874913167e-01  2.3664063748805986e-01  2.3659255297240506e-01  2.3654419534222448e-01  2.3649619164619362e-01  2.3644910179939996e-01  2.3640340867230075e-01  2.3635951250277043e-01  2.3631772974621743e-01  2.3627829624711555e-01  2.3624137426511399e-01  2.3620706252625326e-01  2.3617540820947064e-01  2.3614641966916911e-01  2.3612007869810914e-01  2.3609635116750216e-01  2.3607519488209083e-01  2.3605656347537007e-01  2.3604040527638581e-01  2.3602665656377564e-01  2.3601522986106893e-01  2.3600600040042896e-01  2.3599879813220742e-01  2.3599341914768127e-01  2.3598967785534447e-01  2.3598750582124944e-01  3.3404391257877442e-01  3.3404065382120657e-01  2.3598271543187876e-01  2.3598282433736795e-01  2.3598300132916564e-01  2.3598325674734527e-01  2.3598360778995225e-01  2.3598407641672436e-01  2.3598468830668337e-01  2.3598547277743726e-01  2.3598646309251103e-01  2.3598769675931222e-01  2.3598921555719898e-01  2.3599106513501514e-01  2.3599329409316600e-01  2.3599595252899153e-01  2.3599909008682241e-01  2.3600275362120945e-01  2.3600698465343173e-01  2.3601181687033079e-01  2.3601727396896771e-01  2.3602336817391500e-01  2.3603009972784503e-01  2.3603745757290778e-01  2.3604542130663170e-01  2.3605396432875803e-01  2.3606305792020707e-01  2.3607267584350861e-01  2.3608279895459222e-01  2.3609341928863253e-01  2.3610454313225737e-01  2.3611619271168394e-01  2.3612840629516479e-01  2.3614123670363407e-01  2.3615474841030892e-01  2.3616901355067521e-01  2.3618410723631411e-01  2.3620010257008545e-01  2.3621706571707884e-01  2.3623505132271744e-01  2.3625409850831824e-01  2.3627422762542954e-01  2.3629543791204732e-01  2.3631770615860431e-01  2.3634098644879209e-01  2.3636521098240321e-01  2.3639029190980404e-01  2.3641612401523543e-01  2.3644258798629475e-01  2.3646955391447505e-01  2.3649688460594581e-01  2.3652443825947869e-01  2.3655207010012930e-01  2.3657963263988191e-01  2.3660697435269445e-01  2.3663393667706714e-01  2.3666034937920868e-01  2.3668602442344830e-01  2.3671074856773994e-01  2.3673427487561285e-01  2.3675631360545824e-01  2.3677652391645182e-01  2.3679450944742186e-01  2.3680982372825585e-01  2.3682198985634301e-01  2.3683053190563180e-01  2.3683501053562700e-01  2.3683505628643325e-01  2.3683039734048467e-01  2.3682088038930071e-01  2.3680648363527812e-01  2.3678732090489008e-01  2.3676363639278925e-01  2.3673579089004468e-01  2.3670424173944893e-01  2.3666951939476777e-01  2.3663220314393726e-01  2.3659289768119493e-01  2.3655221134068644e-01  2.3651073631289060e-01  2.3646903113406903e-01  2.3642760599643536e-01  2.3638691168244635e-01  2.3634733293320487e-01  2.3630918673136581e-01  2.3627272537503569e-01  2.3623814354615016e-01  2.3620558807464120e-01  2.3617516888715451e-01  2.3614696965691706e-01  2.3612105679761319e-01  2.3609748555464424e-01  2.3607630204170282e-01  2.3605754029683151e-01  2.3604121406225043e-01  2.3602730434659400e-01  2.3601574627386612e-01  2.3600642284211437e-01  2.3599918041414192e-01  2.3599389375004615e-01  2.3599061924656220e-01  3.3404608805855662e-01  3.3404085729936733e-01  2.3598285281489476e-01  2.3598300263126132e-01  2.3598323695345763e-01  2.3598356410667215e-01  2.3598400124730617e-01  2.3598457118105870e-01  2.3598530109587698e-01  2.3598622231100921e-01  2.3598737035794060e-01  2.3598878501724724e-01  2.3599051005386013e-01  2.3599259247123366e-01  2.3599508117703111e-01  2.3599802502739714e-01  2.3600147029826146e-01  2.3600545772265655e-01  2.3601001933069451e-01  2.3601517542333628e-01  2.3602093208590252e-01  2.3602727967790652e-01  2.3603419269234271e-01  2.3604163125169755e-01  2.3604954431311964e-01  2.3605787441655945e-01  2.3606656356501499e-01  2.3607555962068202e-01  2.3608482247763057e-01  2.3609432925838780e-01  2.3610407788209420e-01  2.3611408854960339e-01  2.3612440296208109e-01  2.3613508139455627e-01  2.3614619802236739e-01  2.3615783508323474e-01  2.3617007651881239e-01  2.3618300168966955e-01  2.3619667964104418e-01  2.3621116426347175e-01  2.3622649057800410e-01  2.3624267229338758e-01  2.3625970072750294e-01  2.3627754514281940e-01  2.3629615449907748e-01  2.3631546056303587e-01  2.3633538222591582e-01  2.3635583076964101e-01  2.3637671569853200e-01  2.3639795063219948e-01  2.3641945866360764e-01  2.3644117654680791e-01  2.3646305710853976e-01  2.3648506937380140e-01  2.3650719603104597e-01  2.3652942799833954e-01  2.3655175596516875e-01  2.3657415888596470e-01  2.3659658942837630e-01  2.3661895620686335e-01  2.3664110307825362e-01  2.3666278751878533e-01  2.3668366300180091e-01  2.3670327646307632e-01  2.3672108878819959e-01  2.3673651319094535e-01  2.3674895908538179e-01  2.3675787310677149e-01  2.3676277495087861e-01  2.3676328752689435e-01  2.3675916023372637e-01  2.3675028308001284e-01  2.3673668975313539e-01  2.3671854985994431e-01  2.3669615292621057e-01  2.3666988781870060e-01  2.3664022072337776e-01  2.3660767340634581e-01  2.3657280217199528e-01  2.3653617733241139e-01  2.3649836321468704e-01  2.3645989944240015e-01  2.3642128491224870e-01  2.3638296610066956e-01  2.3634533092542892e-01  2.3630870844079782e-01  2.3627337353681452e-01  2.3623955500573712e-01  2.3620744506300562e-01  2.3617720857370056e-01  2.3614899057367100e-01  2.3612292096645718e-01  2.3609911548219531e-01  2.3607767227786935e-01  2.3605866424632832e-01  2.3604212842437303e-01  2.3602805602395205e-01  2.3601639008606465e-01  2.3600704487855007e-01  2.3599997873040185e-01  2.3599539755329496e-01  3.3404951106742375e-01  3.3404117877862005e-01  2.3598304863454619e-01  2.3598324021377348e-01  2.3598353432115804e-01  2.3598393668776391e-01  2.3598446364570863e-01  2.3598513815111782e-01  2.3598598849603680e-01  2.3598704795256431e-01  2.3598835462611339e-01  2.3598995120883781e-01  2.3599188439699312e-01  2.3599420377601465e-01  2.3599696003764031e-01  2.3600020247566739e-01  2.3600397580782445e-01  2.3600831648917420e-01  2.3601324881448774e-01  2.3601878123804670e-01  2.3602490344720978e-01  2.3603158477292213e-01  2.36038774455