<?xml version="1.0"?>
<VTKFile type="UnstructuredGrid"  version="0.1"  >
<UnstructuredGrid>
<Piece  NumberOfPoints="5151" NumberOfCells="10000">
<Points>
<DataArray  type="Float64"  NumberOfComponents="3"  format="ascii">0 0 0  0.02 0 0  0.04 0 0  0.06 0 0  0.08 0 0  0.1 0 0  0.12 0 0  0.14 0 0  0.16 0 0  0.18 0 0  0.2 0 0  0.22 0 0  0.24 0 0  0.26 0 0  0.28 0 0  0.3 0 0  0.32 0 0  0.34 0 0  0.36 0 0  0.38 0 0  0.4 0 0  0.42 0 0  0.44 0 0  0.46 0 0  0.48 0 0  0.5 0 0  0.52 0 0  0.54 0 0  0.5600000000000001 0 0  0.58 0 0  0.6 0 0  0.62 0 0  0.64 0 0  0.66 0 0  0.68 0 0  0.7 0 0  0.72 0 0  0.74 0 0  0.76 0 0  0.78 0 0  0.8 0 0  0.82 0 0  0.84 0 0  0.86 0 0  0.88 0 0  0.9 0 0  0.92 0 0  0.9399999999999999 0 0  0.96 0 0  0.98 0 0  1 0 0  1.02 0 0  1.04 0 0  1.06 0 0  1.08 0 0  1.1 0 0  1.12 0 0  1.14 0 0  1.16 0 0  1.18 0 0  1.2 0 0  1.22 0 0  1.24 0 0  1.26 0 0  1.28 0 0  1.3 0 0  1.32 0 0  1.34 0 0  1.36 0 0  1.38 0 0  1.4 0 0  1.42 0 0  1.44 0 0  1.46 0 0  1.48 0 0  1.5 0 0  1.52 0 0  1.54 0 0  1.56 0 0  1.58 0 0  1.6 0 0  1.62 0 0  1.64 0 0  1.66 0 0  1.68 0 0  1.7 0 0  1.72 0 0  1.74 0 0  1.76 0 0  1.78 0 0  1.8 0 0  1.82 0 0  1.84 0 0  1.86 0 0  1.88 0 0  1.9 0 0  1.92 0 0  1.94 0 0  1.96 0 0  1.98 0 0  2 0 0  0 0.02 0  0.02 0.02 0  0.04 0.02 0  0.06 0.02 0  0.08 0.02 0  0.1 0.02 0  0.12 0.02 0  0.14 0.02 0  0.16 0.02 0  0.18 0.02 0  0.2 0.02 0  0.22 0.02 0  0.24 0.02 0  0.26 0.02 0  0.28 0.02 0  0.3 0.02 0  0.32 0.02 0  0.34 0.02 0  0.36 0.02 0  0.38 0.02 0  0.4 0.02 0  0.42 0.02 0  0.44 0.02 0  0.46 0.02 0  0.48 0.02 0  0.5 0.02 0  0.52 0.02 0  0.54 0.02 0  0.5600000000000001 0.02 0  0.58 0.02 0  0.6 0.02 0  0.62 0.02 0  0.64 0.02 0  0.66 0.02 0  0.68 0.02 0  0.7 0.02 0  0.72 0.02 0  0.74 0.02 0  0.76 0.02 0  0.78 0.02 0  0.8 0.02 0  0.82 0.02 0  0.84 0.02 0  0.86 0.02 0  0.88 0.02 0  0.9 0.02 0  0.92 0.02 0  0.9399999999999999 0.02 0  0.96 0.02 0  0.98 0.02 0  1 0.02 0  1.02 0.02 0  1.04 0.02 0  1.06 0.02 0  1.08 0.02 0  1.1 0.02 0  1.12 0.02 0  1.14 0.02 0  1.16 0.02 0  1.18 0.02 0  1.2 0.02 0  1.22 0.02 0  1.24 0.02 0  1.26 0.02 0  1.28 0.02 0  1.3 0.02 0  1.32 0.02 0  1.34 0.02 0  1.36 0.02 0  1.38 0.02 0  1.4 0.02 0  1.42 0.02 0  1.44 0.02 0  1.46 0.02 0  1.48 0.02 0  1.5 0.02 0  1.52 0.02 0  1.54 0.02 0  1.56 0.02 0  1.58 0.02 0  1.6 0.02 0  1.62 0.02 0  1.64 0.02 0  1.66 0.02 0  1.68 0.02 0  1.7 0.02 0  1.72 0.02 0  1.74 0.02 0  1.76 0.02 0  1.78 0.02 0  1.8 0.02 0  1.82 0.02 0  1.84 0.02 0  1.86 0.02 0  1.88 0.02 0  1.9 0.02 0  1.92 0.02 0  1.94 0.02 0  1.96 0.02 0  1.98 0.02 0  2 0.02 0  0 0.04 0  0.02 0.04 0  0.04 0.04 0  0.06 0.04 0  0.08 0.04 0  0.1 0.04 0  0.12 0.04 0  0.14 0.04 0  0.16 0.04 0  0.18 0.04 0  0.2 0.04 0  0.22 0.04 0  0.24 0.04 0  0.26 0.04 0  0.28 0.04 0  0.3 0.04 0  0.32 0.04 0  0.34 0.04 0  0.36 0.04 0  0.38 0.04 0  0.4 0.04 0  0.42 0.04 0  0.44 0.04 0  0.46 0.04 0  0.48 0.04 0  0.5 0.04 0  0.52 0.04 0  0.54 0.04 0  0.5600000000000001 0.04 0  0.58 0.04 0  0.6 0.04 0  0.62 0.04 0  0.64 0.04 0  0.66 0.04 0  0.68 0.04 0  0.7 0.04 0  0.72 0.04 0  0.74 0.04 0  0.76 0.04 0  0.78 0.04 0  0.8 0.04 0  0.82 0.04 0  0.84 0.04 0  0.86 0.04 0  0.88 0.04 0  0.9 0.04 0  0.92 0.04 0  0.9399999999999999 0.04 0  0.96 0.04 0  0.98 0.04 0  1 0.04 0  1.02 0.04 0  1.04 0.04 0  1.06 0.04 0  1.08 0.04 0  1.1 0.04 0  1.12 0.04 0  1.14 0.04 0  1.16 0.04 0  1.18 0.04 0  1.2 0.04 0  1.22 0.04 0  1.24 0.04 0  1.26 0.04 0  1.28 0.04 0  1.3 0.04 0  1.32 0.04 0  1.34 0.04 0  1.36 0.04 0  1.38 0.04 0  1.4 0.04 0  1.42 0.04 0  1.44 0.04 0  1.46 0.04 0  1.48 0.04 0  1.5 0.04 0  1.52 0.04 0  1.54 0.04 0  1.56 0.04 0  1.58 0.04 0  1.6 0.04 0  1.62 0.04 0  1.64 0.04 0  1.66 0.04 0  1.68 0.04 0  1.7 0.04 0  1.72 0.04 0  1.74 0.04 0  1.76 0.04 0  1.78 0.04 0  1.8 0.04 0  1.82 0.04 0  1.84 0.04 0  1.86 0.04 0  1.88 0.04 0  1.9 0.04 0  1.92 0.04 0  1.94 0.04 0  1.96 0.04 0  1.98 0.04 0  2 0.04 0  0 0.06 0  0.02 0.06 0  0.04 0.06 0  0.06 0.06 0  0.08 0.06 0  0.1 0.06 0  0.12 0.06 0  0.14 0.06 0  0.16 0.06 0  0.18 0.06 0  0.2 0.06 0  0.22 0.06 0  0.24 0.06 0  0.26 0.06 0  0.28 0.06 0  0.3 0.06 0  0.32 0.06 0  0.34 0.06 0  0.36 0.06 0  0.38 0.06 0  0.4 0.06 0  0.42 0.06 0  0.44 0.06 0  0.46 0.06 0  0.48 0.06 0  0.5 0.06 0  0.52 0.06 0  0.54 0.06 0  0.5600000000000001 0.06 0  0.58 0.06 0  0.6 0.06 0  0.62 0.06 0  0.64 0.06 0  0.66 0.06 0  0.68 0.06 0  0.7 0.06 0  0.72 0.06 0  0.74 0.06 0  0.76 0.06 0  0.78 0.06 0  0.8 0.06 0  0.82 0.06 0  0.84 0.06 0  0.86 0.06 0  0.88 0.06 0  0.9 0.06 0  0.92 0.06 0  0.9399999999999999 0.06 0  0.96 0.06 0  0.98 0.06 0  1 0.06 0  1.02 0.06 0  1.04 0.06 0  1.06 0.06 0  1.08 0.06 0  1.1 0.06 0  1.12 0.06 0  1.14 0.06 0  1.16 0.06 0  1.18 0.06 0  1.2 0.06 0  1.22 0.06 0  1.24 0.06 0  1.26 0.06 0  1.28 0.06 0  1.3 0.06 0  1.32 0.06 0  1.34 0.06 0  1.36 0.06 0  1.38 0.06 0  1.4 0.06 0  1.42 0.06 0  1.44 0.06 0  1.46 0.06 0  1.48 0.06 0  1.5 0.06 0  1.52 0.06 0  1.54 0.06 0  1.56 0.06 0  1.58 0.06 0  1.6 0.06 0  1.62 0.06 0  1.64 0.06 0  1.66 0.06 0  1.68 0.06 0  1.7 0.06 0  1.72 0.06 0  1.74 0.06 0  1.76 0.06 0  1.78 0.06 0  1.8 0.06 0  1.82 0.06 0  1.84 0.06 0  1.86 0.06 0  1.88 0.06 0  1.9 0.06 0  1.92 0.06 0  1.94 0.06 0  1.96 0.06 0  1.98 0.06 0  2 0.06 0  0 0.08 0  0.02 0.08 0  0.04 0.08 0  0.06 0.08 0  0.08 0.08 0  0.1 0.08 0  0.12 0.08 0  0.14 0.08 0  0.16 0.08 0  0.18 0.08 0  0.2 0.08 0  0.22 0.08 0  0.24 0.08 0  0.26 0.08 0  0.28 0.08 0  0.3 0.08 0  0.32 0.08 0  0.34 0.08 0  0.36 0.08 0  0.38 0.08 0  0.4 0.08 0  0.42 0.08 0  0.44 0.08 0  0.46 0.08 0  0.48 0.08 0  0.5 0.08 0  0.52 0.08 0  0.54 0.08 0  0.5600000000000001 0.08 0  0.58 0.08 0  0.6 0.08 0  0.62 0.08 0  0.64 0.08 0  0.66 0.08 0  0.68 0.08 0  0.7 0.08 0  0.72 0.08 0  0.74 0.08 0  0.76 0.08 0  0.78 0.08 0  0.8 0.08 0  0.82 0.08 0  0.84 0.08 0  0.86 0.08 0  0.88 0.08 0  0.9 0.08 0  0.92 0.08 0  0.9399999999999999 0.08 0  0.96 0.08 0  0.98 0.08 0  1 0.08 0  1.02 0.08 0  1.04 0.08 0  1.06 0.08 0  1.08 0.08 0  1.1 0.08 0  1.12 0.08 0  1.14 0.08 0  1.16 0.08 0  1.18 0.08 0  1.2 0.08 0  1.22 0.08 0  1.24 0.08 0  1.26 0.08 0  1.28 0.08 0  1.3 0.08 0  1.32 0.08 0  1.34 0.08 0  1.36 0.08 0  1.38 0.08 0  1.4 0.08 0  1.42 0.08 0  1.44 0.08 0  1.46 0.08 0  1.48 0.08 0  1.5 0.08 0  1.52 0.08 0  1.54 0.08 0  1.56 0.08 0  1.58 0.08 0  1.6 0.08 0  1.62 0.08 0  1.64 0.08 0  1.66 0.08 0  1.68 0.08 0  1.7 0.08 0  1.72 0.08 0  1.74 0.08 0  1.76 0.08 0  1.78 0.08 0  1.8 0.08 0  1.82 0.08 0  1.84 0.08 0  1.86 0.08 0  1.88 0.08 0  1.9 0.08 0  1.92 0.08 0  1.94 0.08 0  1.96 0.08 0  1.98 0.08 0  2 0.08 0  0 0.1 0  0.02 0.1 0  0.04 0.1 0  0.06 0.1 0  0.08 0.1 0  0.1 0.1 0  0.12 0.1 0  0.14 0.1 0  0.16 0.1 0  0.18 0.1 0  0.2 0.1 0  0.22 0.1 0  0.24 0.1 0  0.26 0.1 0  0.28 0.1 0  0.3 0.1 0  0.32 0.1 0  0.34 0.1 0  0.36 0.1 0  0.38 0.1 0  0.4 0.1 0  0.42 0.1 0  0.44 0.1 0  0.46 0.1 0  0.48 0.1 0  0.5 0.1 0  0.52 0.1 0  0.54 0.1 0  0.5600000000000001 0.1 0  0.58 0.1 0  0.6 0.1 0  0.62 0.1 0  0.64 0.1 0  0.66 0.1 0  0.68 0.1 0  0.7 0.1 0  0.72 0.1 0  0.74 0.1 0  0.76 0.1 0  0.78 0.1 0  0.8 0.1 0  0.82 0.1 0  0.84 0.1 0  0.86 0.1 0  0.88 0.1 0  0.9 0.1 0  0.92 0.1 0  0.9399999999999999 0.1 0  0.96 0.1 0  0.98 0.1 0  1 0.1 0  1.02 0.1 0  1.04 0.1 0  1.06 0.1 0  1.08 0.1 0  1.1 0.1 0  1.12 0.1 0  1.14 0.1 0  1.16 0.1 0  1.18 0.1 0  1.2 0.1 0  1.22 0.1 0  1.24 0.1 0  1.26 0.1 0  1.28 0.1 0  1.3 0.1 0  1.32 0.1 0  1.34 0.1 0  1.36 0.1 0  1.38 0.1 0  1.4 0.1 0  1.42 0.1 0  1.44 0.1 0  1.46 0.1 0  1.48 0.1 0  1.5 0.1 0  1.52 0.1 0  1.54 0.1 0  1.56 0.1 0  1.58 0.1 0  1.6 0.1 0  1.62 0.1 0  1.64 0.1 0  1.66 0.1 0  1.68 0.1 0  1.7 0.1 0  1.72 0.1 0  1.74 0.1 0  1.76 0.1 0  1.78 0.1 0  1.8 0.1 0  1.82 0.1 0  1.84 0.1 0  1.86 0.1 0  1.88 0.1 0  1.9 0.1 0  1.92 0.1 0  1.94 0.1 0  1.96 0.1 0  1.98 0.1 0  2 0.1 0  0 0.12 0  0.02 0.12 0  0.04 0.12 0  0.06 0.12 0  0.08 0.12 0  0.1 0.12 0  0.12 0.12 0  0.14 0.12 0  0.16 0.12 0  0.18 0.12 0  0.2 0.12 0  0.22 0.12 0  0.24 0.12 0  0.26 0.12 0  0.28 0.12 0  0.3 0.12 0  0.32 0.12 0  0.34 0.12 0  0.36 0.12 0  0.38 0.12 0  0.4 0.12 0  0.42 0.12 0  0.44 0.12 0  0.46 0.12 0  0.48 0.12 0  0.5 0.12 0  0.52 0.12 0  0.54 0.12 0  0.5600000000000001 0.12 0  0.58 0.12 0  0.6 0.12 0  0.62 0.12 0  0.64 0.12 0  0.66 0.12 0  0.68 0.12 0  0.7 0.12 0  0.72 0.12 0  0.74 0.12 0  0.76 0.12 0  0.78 0.12 0  0.8 0.12 0  0.82 0.12 0  0.84 0.12 0  0.86 0.12 0  0.88 0.12 0  0.9 0.12 0  0.92 0.12 0  0.9399999999999999 0.12 0  0.96 0.12 0  0.98 0.12 0  1 0.12 0  1.02 0.12 0  1.04 0.12 0  1.06 0.12 0  1.08 0.12 0  1.1 0.12 0  1.12 0.12 0  1.14 0.12 0  1.16 0.12 0  1.18 0.12 0  1.2 0.12 0  1.22 0.12 0  1.24 0.12 0  1.26 0.12 0  1.28 0.12 0  1.3 0.12 0  1.32 0.12 0  1.34 0.12 0  1.36 0.12 0  1.38 0.12 0  1.4 0.12 0  1.42 0.12 0  1.44 0.12 0  1.46 0.12 0  1.48 0.12 0  1.5 0.12 0  1.52 0.12 0  1.54 0.12 0  1.56 0.12 0  1.58 0.12 0  1.6 0.12 0  1.62 0.12 0  1.64 0.12 0  1.66 0.12 0  1.68 0.12 0  1.7 0.12 0  1.72 0.12 0  1.74 0.12 0  1.76 0.12 0  1.78 0.12 0  1.8 0.12 0  1.82 0.12 0  1.84 0.12 0  1.86 0.12 0  1.88 0.12 0  1.9 0.12 0  1.92 0.12 0  1.94 0.12 0  1.96 0.12 0  1.98 0.12 0  2 0.12 0  0 0.14 0  0.02 0.14 0  0.04 0.14 0  0.06 0.14 0  0.08 0.14 0  0.1 0.14 0  0.12 0.14 0  0.14 0.14 0  0.16 0.14 0  0.18 0.14 0  0.2 0.14 0  0.22 0.14 0  0.24 0.14 0  0.26 0.14 0  0.28 0.14 0  0.3 0.14 0  0.32 0.14 0  0.34 0.14 0  0.36 0.14 0  0.38 0.14 0  0.4 0.14 0  0.42 0.14 0  0.44 0.14 0  0.46 0.14 0  0.48 0.14 0  0.5 0.14 0  0.52 0.14 0  0.54 0.14 0  0.5600000000000001 0.14 0  0.58 0.14 0  0.6 0.14 0  0.62 0.14 0  0.64 0.14 0  0.66 0.14 0  0.68 0.14 0  0.7 0.14 0  0.72 0.14 0  0.74 0.14 0  0.76 0.14 0  0.78 0.14 0  0.8 0.14 0  0.82 0.14 0  0.84 0.14 0  0.86 0.14 0  0.88 0.14 0  0.9 0.14 0  0.92 0.14 0  0.9399999999999999 0.14 0  0.96 0.14 0  0.98 0.14 0  1 0.14 0  1.02 0.14 0  1.04 0.14 0  1.06 0.14 0  1.08 0.14 0  1.1 0.14 0  1.12 0.14 0  1.14 0.14 0  1.16 0.14 0  1.18 0.14 0  1.2 0.14 0  1.22 0.14 0  1.24 0.14 0  1.26 0.14 0  1.28 0.14 0  1.3 0.14 0  1.32 0.14 0  1.34 0.14 0  1.36 0.14 0  1.38 0.14 0  1.4 0.14 0  1.42 0.14 0  1.44 0.14 0  1.46 0.14 0  1.48 0.14 0  1
[...]
<PointData  Scalars="sols[i]"> 
<DataArray  type="Float64"  Name="sols[i]"  format="ascii">1.3427453757314975e-02  8.9823080911504601e-03  8.9823081012228231e-03  8.9823081210208336e-03  8.9823081566489764e-03  8.9823082178567756e-03  8.9823083193227814e-03  8.9823084823702822e-03  8.9823087377251896e-03  8.9823091302384493e-03  8.9823097269482802e-03  8.9823106306653293e-03  8.9823120027475063e-03  8.9823141014729636e-03  8.9823173475665347e-03  8.9823224380158606e-03  8.9823305466931059e-03  8.9823436801349868e-03  8.9823653037231291e-03  8.9824014177189576e-03  8.9824623297484370e-03  8.9825653948800641e-03  8.9827388791531831e-03  8.9830266927767560e-03  8.9834928699772006e-03  8.9842233181145134e-03  8.9853209123666646e-03  8.9868895836743290e-03  8.9890054006723473e-03  8.9916790481215959e-03  8.9948227060638545e-03  8.9982378510975111e-03  9.0016343093790481e-03  9.0046798429949358e-03  9.0070658820246789e-03  9.0085649257518122e-03  9.0090612451209293e-03  9.0085550293062481e-03  9.0071514763911398e-03  9.0050409748925336e-03  9.0024673360142270e-03  8.9996853502140057e-03  8.9969198403857167e-03  8.9943388381025485e-03  8.9920452673835326e-03  8.9900836307610400e-03  8.9884548185707874e-03  8.9871324438151635e-03  8.9860765837827122e-03  8.9852434847340346e-03  8.9845914258287821e-03  8.9840836287938507e-03  8.9836892336105506e-03  8.9833831839767515e-03  8.9831455936599854e-03  8.9829609303157306e-03  8.9828171916106567e-03  8.9827051565957786e-03  8.9826177493200210e-03  8.9825495255609795e-03  8.9824962759026405e-03  8.9824547278848105e-03  8.9824223259386098e-03  8.9823970687769837e-03  8.9823773877159112e-03  8.9823620538584843e-03  8.9823501059562126e-03  8.9823407935443172e-03  8.9823335318080753e-03  8.9823278657144307e-03  8.9823234416029178e-03  8.9823199847936033e-03  8.9823172820522254e-03  8.9823151679164388e-03  8.9823135140657435e-03  8.9823122210442637e-03  8.9823112117838125e-03  8.9823104264934138e-03  8.9823098186069157e-03  8.9823093515783367e-03  8.9823089963926624e-03  8.9823087296985963e-03  8.9823085324731988e-03  8.9823083891168633e-03  8.9823082868565225e-03  8.9823082153402279e-03  8.9823081663261174e-03  8.9823081334022836e-03  8.9823081117106802e-03  8.9823080976720732e-03  8.9823080887235611e-03  8.9823080830816245e-03  8.9823080795405335e-03  8.9823080773095716e-03  8.9823080758868364e-03  8.9823080749654276e-03  8.9823080743639365e-03  8.9823080739766959e-03  8.9823080737404248e-03  8.9823080736182066e-03  2.6592491575464137e-02  8.9823080907590856e-03  4.5069417725432754e-03  4.5069417778934992e-03  4.5069417885282986e-03  4.5069418073913261e-03  4.5069418391311816e-03  4.5069418908288321e-03  4.5069419730826539e-03  4.5069421017580429e-03  4.5069423009246358e-03  4.5069426077921880e-03  4.5069430809277916e-03  4.5069438138643347e-03  4.5069449577235694e-03  4.5069467593418832e-03  4.5069496268818864e-03  4.5069542453004818e-03  4.5069617828420909e-03  4.5069742613163336e-03  4.5069952102318508e-03  4.5070307830481849e-03  4.5070915577301775e-03  4.5071952097926670e-03  4.5073700176638835e-03  4.5076585851825234e-03  4.5081201514951255e-03  4.5088285869594336e-03  4.5098624041451244e-03  4.5112843277199614e-03  4.5131126979892043e-03  4.5152945368697670e-03  4.5176937890027908e-03  4.5201032725822633e-03  4.5222809185660653e-03  4.5240000674261135e-03  4.5250935916589892e-03  4.5254761187529784e-03  4.5251454231422621e-03  4.5241742467813425e-03  4.5226977134393657e-03  4.5208914656263387e-03  4.5189398570802709e-03  4.5170047163506089e-03  4.5152053846606944e-03  4.5136132134574770e-03  4.5122572889064764e-03  4.5111358920705488e-03  4.5102286364106965e-03  4.5095063292919834e-03  4.5089377224629750e-03  4.5084934567152304e-03  4.5081479183137364e-03  4.5078797758109678e-03  4.5076718044417255e-03  4.5075103900712402e-03  4.5073849342927037e-03  4.5072872697454729e-03  4.5072111349495035e-03  4.5071517310876141e-03  4.5071053671701371e-03  4.5070691878903342e-03  4.5070409711188576e-03  4.5070189793412242e-03  4.5070018503342701e-03  4.5069885154076549e-03  4.5069781369109167e-03  4.5069700594846038e-03  4.5069637714986108e-03  4.5069588743561597e-03  4.5069550580557616e-03  4.5069520818112035e-03  4.5069497587725636e-03  4.5069479440540162e-03  4.5069465253993303e-03  4.5069454159209592e-03  4.5069445484430780e-03  4.5069438710671024e-03  4.5069433436646170e-03  4.5069429350861360e-03  4.5069426209475546e-03  4.5069423819098795e-03  4.5069422023944362e-03  4.5069420696758379e-03  4.5069419732802381e-03  4.5069419046012676e-03  4.5069418566461572e-03  4.5069418238413254e-03  4.5069418018525119e-03  4.5069417874012922e-03  4.5069417780785022e-03  4.5069417721641265e-03  4.5069417684643204e-03  4.5069417661729319e-03  4.5069417647602408e-03  4.5069417638876046e-03  4.5069417633447620e-03  4.5069417630049079e-03  4.5069417627932838e-03  4.5069417626661641e-03  4.5069417625980199e-03  8.9823080736131291e-03  8.9823080995313585e-03  4.5069417772997198e-03  4.5069417848456238e-03  4.5069417992730180e-03  4.5069418239120354e-03  4.5069418639990281e-03  4.5069419277220177e-03  4.5069420281000291e-03  4.5069421861757535e-03  4.5069424363620115e-03  4.5069428353062269e-03  4.5069434764274168e-03  4.5069445135645092e-03  4.5069461994402763e-03  4.5069489489672938e-03  4.5069534460880772e-03  4.5069608303696957e-03  4.5069730339756479e-03  4.5069934030094443e-03  4.5070278430396904e-03  4.5070868803448747e-03  4.5071891934688859e-03  4.5073672211811411e-03  4.5076751218784544e-03  4.5081982163860633e-03  4.5090606723023367e-03  4.5104246930653055e-03  4.5124714145762940e-03  4.5153550608850335e-03  4.5191332539273911e-03  4.5236990181556896e-03  4.5287509903392167e-03  4.5338214218989918e-03  4.5383648843038893e-03  4.5418834356109883e-03  4.5440301946984858e-03  4.5446484857921627e-03  4.5437594602513297e-03  4.5415391386748136e-03  4.5382966986253458e-03  4.5344276672098314e-03  4.5303360523158785e-03  4.5263607709005865e-03  4.5227354378076954e-03  4.5195845819489969e-03  4.5169437945961084e-03  4.5147893703469371e-03  4.5130657688485180e-03  4.5117055876708716e-03  4.5106419298014738e-03  4.5098148180609254e-03  4.5091735758725771e-03  4.5086769384108157e-03  4.5082921176048431e-03  4.5079935027708068e-03  4.5077613359182679e-03  4.5075804967493012e-03  4.5074394471154196e-03  4.5073293613828464e-03  4.5072434471234556e-03  4.5071764367515949e-03  4.5071242174110054e-03  4.5070835634738807e-03  4.5070519405414327e-03  4.5070273580764403e-03  4.5070082555488111e-03  4.5069934125891303e-03  4.5069818772744720e-03  4.5069729087457364e-03  4.5069659314383934e-03  4.5069604988019285e-03  4.5069562647468454e-03  4.5069529613198135e-03  4.5069503813300240e-03  4.5069483648477130e-03  4.5069467886752323e-03  4.5069455580615363e-03  4.5069446001034727e-03  4.5069438584494134e-03  4.5069432890743307e-03  4.5069428570034880e-03  4.5069425339047432e-03  4.5069422964490752e-03  4.5069421252859239e-03  4.5069420044369125e-03  4.5069419209127761e-03  4.5069418644038493e-03  4.5069418269603808e-03  4.5069418026399549e-03  4.5069417871374026e-03  4.5069417774264812e-03  4.5069417714395758e-03  4.5069417678007921e-03  4.5069417656165194e-03  4.5069417643190963e-03  4.5069417635554285e-03  4.5069417631103661e-03  4.5069417628557824e-03  4.5069417627175562e-03  4.5069417626523774e-03  8.9823080737121003e-03  8.9823081161826968e-03  4.5069417864050587e-03  4.5069417975356369e-03  4.5069418178789438e-03  4.5069418517061860e-03  4.5069419060845065e-03  4.5069419927079120e-03  4.5069421314352549e-03  4.5069423564938985e-03  4.5069427269917011e-03  4.5069433443997598e-03  4.5069443811367269e-03  4.5069461265999713e-03  4.5069490606414898e-03  4.5069539712905855e-03  4.5069621476020207e-03  4.5069757090283689e-03  4.5069981980552275e-03  4.5070356951052038e-03  4.5070989595012156e-03  4.5072074982437562e-03  4.5073969896170692e-03  4.5077319138444941e-03  4.5083249323154126e-03  4.5093623064764842e-03  4.5111289209764129e-03  4.5140165970494386e-03  4.5184881248418705e-03  4.5249672464842024e-03  4.5336513701547208e-03  4.5443190094557190e-03  4.5562422697757680e-03  4.5682495882279715e-03  4.5789585466548405e-03  4.5871274606205659e-03  4.5919374475050234e-03  4.5930650872719053e-03  4.5906090656354492e-03  4.5850252102544245e-03  4.5770994129724464e-03  4.5678352650243203e-03  4.5582307877574998e-03  4.5490815889686152e-03  4.5408947058880808e-03  4.5339028239496041e-03  4.5281320178802466e-03  4.5234839688250419e-03  4.5198034085500039e-03  4.5169217155140110e-03  4.5146811909514330e-03  4.5129459040549776e-03  4.5116040864868531e-03  4.5105664272031692e-03  4.5097629028345871e-03  4.5091393501516860e-03  4.5086543057212200e-03  4.5082762352784437e-03  4.5079811715602186e-03  4.5077508036517732e-03  4.5075710199368067e-03  4.5074308441628731e-03  4.5073216773082250e-03  4.5072367567948642e-03  4.5071707603509432e-03  4.5071195053683266e-03  4.5070797136644442e-03  4.5070488236603817e-03  4.5070248392825429e-03  4.5070062086379334e-03  4.5069917272037912e-03  4.5069804612044087e-03  4.5069716874655509e-03  4.5069648465239738e-03  4.5069595062339927e-03  4.5069553335410533e-03  4.5069520724739243e-03  4.5069495267733347e-03  4.5069475459603549e-03  4.5069460140496967e-03  4.5069448404795130e-03  4.5069439530817414e-03  4.5069432929957477e-03  4.5069428113363669e-03  4.5069424672525369e-03  4.5069422268847652e-03  4.5069420627376639e-03  4.5069419531173164e-03  4.5069418814641755e-03  4.5069418355646023e-03  4.5069418067079162e-03  4.5069417888753769e-03  4.5069417780276202e-03  4.5069417715240465e-03  4.5069417676783189e-03  4.5069417654352165e-03  4.5069417641461981e-03  4.5069417634194774e-03  4.5069417630233897e-03  4.5069417628255740e-03  4.5069417627485106e-03  8.9823080738937883e-03  8.9823081447852789e-03  4.5069418017290551e-03  4.5069418178464507e-03  4.5069418465894344e-03  4.5069418941634798e-03  4.5069419715649123e-03  4.5069420981004799e-03  4.5069423082568973e-03  4.5069426639316214e-03  4.5069432754809239e-03  4.5069443371227730e-03  4.5069461851469702e-03  4.5069493914688067e-03  4.5069549111053792e-03  4.5069643124823755e-03  4.5069801407550004e-03  4.5070065137323752e-03  4.5070501667891245e-03  4.5071224257451047e-03  4.5072431272697912e-03  4.5074484936165372e-03  4.5078064895348307e-03  4.5084449186584734e-03  4.5095980891757485e-03  4.5116741527360619e-03  4.5153322879834847e-03  4.5215324606766557e-03  4.5314828369320513e-03  4.5463842791762998e-03  4.5669174696284518e-03  4.5926765602834208e-03  4.6218980129241940e-03  4.6515601410588789e-03  4.6779790886330381e-03  4.6978604759674745e-03  4.7091494834121568e-03  4.7111590764303077e-03  4.7042435333458643e-03  4.6896176095626973e-03  4.6693955078525211e-03  4.6462883001537969e-03  4.6228848505950534e-03  4.6011030445730367e-03  4.5820347599084344e-03  4.5660666485593006e-03  4.5531039684240746e-03  4.5428012583099663e-03  4.5347266509403947e-03  4.5284526937935232e-03  4.5236007603606972e-03  4.5198564856056877e-03  4.5169678501144374e-03  4.5147368361696458e-03  4.5130100098163452e-03  4.5116697040210605e-03  4.5106264873433109e-03  4.5098127593825909e-03  4.5091773267761162e-03  4.5086810923793234e-03  4.5082938589605806e-03  4.5079920558680564e-03  4.5077571540994314e-03  4.5075745478577699e-03  4.5074327303279080e-03  4.5073226591655306e-03  4.5072372529700640e-03  4.5071709847157920e-03  4.5071195527125150e-03  4.5070796160821599e-03  4.5070485839428269e-03  4.5070244489900727e-03  4.5070056573073662e-03  4.5069910072073095e-03  4.5069795709605362e-03  4.5069706342436280e-03  4.5069636489620101e-03  4.5069581958994348e-03  4.5069539545284105e-03  4.5069506782868677e-03  4.5069481745368678e-03  4.5069462890391186e-03  4.5069448949211300e-03  4.5069438857863750e-03  4.5069431720598553e-03  4.5069426792915691e-03  4.5069423471883040e-03  4.5069421285458787e-03  4.5069419877554898e-03  4.5069418989397850e-03  4.5069418439515497e-03  4.5069418104766064e-03  4.5069417904038903e-03  4.5069417785303326e-03  4.5069417715947503e-03  4.5069417675934259e-03  4.5069417653162396e-03  4.5069417640439258e-03  4.5069417633574003e-03  4.5069417630207165e-03  4.5069417628987897e-03  8.9823080741694462e-03  8.9823081910681262e-03  4.5069418258023991e-03  4.5069418481706114e-03  4.5069418884072171e-03  4.5069419563692273e-03  4.5069420704636730e-03  4.5069422645780356e-03  4.5069426014626469e-03  4.5069431968389993e-03  4.5069442616176535e-03  4.5069461740390362e-03  4.5069495997087511e-03  4.5069556856296026e-03  4.5069663648064293e-03  4.5069848227744132e-03  4.5070162049150779e-03  4.5070687115076578e-03  4.5071554117248318e-03  4.5072975831093355e-03  4.5075314932625718e-03  4.5079228333628363e-03  4.5085970743444399e-03  4.5097997538088141e-03  4.5120056408672338e-03  4.5160924205646588e-03  4.5235690661490965e-03  4.5367850011737727e-03  4.5589330015269403e-03  4.5935287363677597e-03  4.6430180681659031e-03  4.7070579825335430e-03  4.7816102490749433e-03  4.8587516302840000e-03  4.9279806696484151e-03  4.9796286230009857e-03  5.0078891835612241e-03  5.0111419542855726e-03  4.9905824657815092e-03  4.9496949460813974e-03  4.8948079205763315e-03  4.8340212026271659e-03  4.7744840634037344e-03  4.7208545952692298e-03  4.6752821943188486e-03  4.6380885293143739e-03  4.6085172009331906e-03  4.5853884277431431e-03  4.5674798403833074e-03  4.5536863256975552e-03  4.5430833327161227e-03  4.5349342245785164e-03  4.5286640858037252e-03  4.5238289285592943e-03  4.5200889820913902e-03  4.5171860225380368e-03  4.5149253882765476e-03  4.5131610164315349e-03  4.5117827229897165e-03  4.5107063379895840e-03  4.5098666659945932e-03  4.5092126217540253e-03  4.5087039169519269e-03  4.5083087415610512e-03  4.5080020296899802e-03  4.5077640993215103e-03  4.5075795579917633e-03  4.5074364103241116e-03  4.5073253332418165e-03  4.5072390942027859e-03  4.5071720888398359e-03  4.5071199772925563e-03  4.5070794008861340e-03  4.5070477627841762e-03  4.5070230588318966e-03  4.5070037470879730e-03  4.5069886462846247e-03  4.5069768551563600e-03  4.5069676866105841e-03  4.5069606131024620e-03  4.5069552218892899e-03  4.5069511803930880e-03  4.5069482121471716e-03  4.5069460827015656e-03  4.5069445931511590e-03  4.5069435778789281e-03  4.5069429033537962e-03  4.5069424660499754e-03  4.5069421889431796e-03  4.5069420169791810e-03  4.5069419122495610e-03  4.5069418495202202e-03  4.5069418124919422e-03  4.5069417909113880e-03  4.5069417784747998e-03  4.5069417713820576e-03  4.5069417673805606e-03  4.5069417651552694e-03  4.5069417639522803e-03  4.5069417633529559e-03  4.5069417631259361e-03  8.9823080745616013e-03  8.9823082622083380e-03  4.5069418617837967e-03  4.5069418914281357e-03  4.5069419472593304e-03  4.5069420457023966e-03  4.5069422184063155e-03  4.5069425257928909e-03  4.5069430828729015e-03  4.5069441064080409e-03  4.5069459991246147e-03  4.5069494964043721e-03  4.5069559145991932e-03  4.5069675578038844e-03  4.5069883601886046e-03  4.5070248619134400e-03  4.5070876423066123e-03  4.5071933975838821e-03  4.5073680757681308e-03  4.5076522171975993e-03  4.5081117027251528e-03  4.5088620288309036e-03  4.5101242790005196e-03  4.5123478937273732e-03  4.5164562802523581e-03  4.5242809717977728e-03  4.5392140458523520e-03  4.5669823822219891e-03  4.6161662786659442e-03  4.6976193799028437e-03  4.8209773726995550e-03  4.9893996326257090e-03  5.1962711187407210e-03  5.4212508174642845e-03  5.6303163792055678e-03  5.7880068765495153e-03  5.8720196787226094e-03  5.8761967136885147e-03  5.8047842467559944e-03  5.6704878075374806e-03  5.4978758929500639e-03  5.3170456722760918e-03  5.1502452825789701e-03  5.0081884384427381e-03  4.8931843238582285e-03  4.8030159280355936e-03  4.7335186719422544e-03  4.6804099243609506e-03  4.6399942141204633e-03  4.6092508837848357e-03  4.5858216371627569e-03  4.5679239104684157e-03  4.5542113417517873e-03  4.5436662262622034e-03  4.5355226753825192e-03  4.5292054999255937e-03  4.5242860437929040e-03  4.5204460754895192e-03  4.5174467297881306e-03  4.5151054569562551e-03  4.5132804599595597e-03  4.5118602378714165e-03  4.5107566455461299e-03  4.5099000650848219e-03  4.5092356940458315e-03  4.5087205749533930e-03  4.5083211834132950e-03  4.5080114456505435e-03  4.5077711290143086e-03  4.5075845569549772e-03  4.5074395919569247e-03  4.5073268392598446e-03  4.5072390296656854e-03  4.5071705434944487e-03  4.5071170447529467e-03  4.5070752000259100e-03  4.5070424600441358e-03  4.5070168854190540e-03  4.5069970027318516e-03  4.5069816831451778e-03  4.5069700416962948e-03  4.5069613594277622e-03  4.5069550308890977e-03  4.5069505360238269e-03  4.5069474301751419e-03  4.5069453429197404e-03  4.5069439775531871e-03  4.5069431068311050e-03  4.5069425643917572e-03  4.5069422335234852e-03  4.5069420354541707e-03  4.5069419188131796e-03  4.5069418510914790e-03  4.5069418122453530e-03  4.5069417901906113e-03  4.5069417777798739e-03  4.5069417708542637e-03  4.5069417670288471e-03  4.5069417649580132e-03  4.5069417639035606e-03  4.5069417634712328e-03  8.9823080751157587e-03  8.9823083661869762e-03  4.5069419133035617e-03  4.5069419511779103e-03  4.5069420285038910e-03  4.5069421731285097e-03  4.5069424396819470e-03  4.5069429354824657e-03  4.5069438695526272e-03  4.5069456437267195e-03  4.5069490188534792e-03  4.5069554107443361e-03  4.5069674021455362e-03  4.5069895985467689e-03  4.5070300015582973e-03  4.5071021093572878e-03  4.5072279587381973e-03  4.5074423021507857e-03  4.5077982087275512e-03  4.5083751756531572e-03  4.5092940172848112e-03  4.5107522390978039e-03  4.5131164452059044e-03  4.5171539101913783e-03  4.5245569541608431e-03  4.5389877418227330e-03  4.5678778476647506e-03  4.6251039160221316e-03  4.7343002868410486e-03  4.9319130787060204e-03  5.2622695078457021e-03  5.7654418214863230e-03  6.4708279191428254e-03  7.3630039960619707e-03  8.3182798708479229e-03  9.1150806573514435e-03  9.5564565938614770e-03  9.5594349177423980e-03  9.1448443613928627e-03  8.4232158445778846e-03  7.5917329498562929e-03  6.8355358894120997e-03  6.2317319835843432e-03  5.7780031526246346e-03  5.4455316583386631e-03  5.2042637132173990e-03  5.0286154169317133e-03  4.8998369915419452e-03  4.8048040109385376e-03  4.7340951500576579e-03  4.6810396775448480e-03  4.6409722982348285e-03  4.6105312815951580e-03  4.5872592910916107e-03  4.5693589547524394e-03  4.5555060809749663e-03  4.5447324976402963e-03  4.5363319584159796e-03  4.5297783455849183e-03  4.5246698245353777e-03  4.5206939733620534e-03  4.5176047026183278e-03  4.5152074295734240e-03  4.5133488118924460e-03  4.5119084946311852e-03  4.5107924260235433e-03  4.5099274410400018e-03  4.5092567850798524e-03  4.5087365031194239e-03  4.5083325880085250e-03  4.5080187344315563e-03  4.5077745909495662e-03  4.5075844142295034e-03  4.5074360347888125e-03  4.5073200652187093e-03  4.5072292948346322e-03  4.5071582204835262e-03  4.5071026703809320e-03  4.5070594887765113e-03  4.5070262645009254e-03  4.5070011022566216e-03  4.5069824460298507e-03  4.5069689644967673e-03  4.5069594973355335e-03  4.5069530449609423e-03  4.5069487758016688e-03  4.5069460299144827e-03  4.5069443094230208e-03  4.5069432566585471e-03  4.5069426259122551e-03  4.5069422549374061e-03  4.5069420402188507e-03  4.5069419176354602e-03  4.5069418484585486e-03  4.5069418097941193e-03  4.5069417883538843e-03  4.5069417765443223e-03  4.5069417700854368e-03  4.5069417665994978e-03  4.5069417647967446e-03  4.5069417640060498e-03  8.9823080759247591e-03  8.9823085109151449e-03  4.5069419842127881e-03  4.5069420317586772e-03  4.5069421396384327e-03  4.5069423549557158e-03  4.5069427713006725e-03  4.5069435768719966e-03  4.5069451457517172e-03  4.5069482109894640e-03  4.5069541876650160e-03  4.5069657622463198e-03  4.5069879382616893e-03  4.5070298300926457e-03  4.5071076149985623e-03  4.5072491447976665e-03  4.5075006878078309e-03  4.5079359842628772e-03  4.5086672354771040e-03  4.5098574803104918e-03  4.5117369623922411e-03  4.5146410769966987e-03  4.51913378431