<?xml version="1.0"?>
<VTKFile type="UnstructuredGrid"  version="0.1"  >
<UnstructuredGrid>
<Piece  NumberOfPoints="5151" NumberOfCells="10000">
<Points>
<DataArray  type="Float64"  NumberOfComponents="3"  format="ascii">0 0 0  0.02 0 0  0.04 0 0  0.06 0 0  0.08 0 0  0.1 0 0  0.12 0 0  0.14 0 0  0.16 0 0  0.18 0 0  0.2 0 0  0.22 0 0  0.24 0 0  0.26 0 0  0.28 0 0  0.3 0 0  0.32 0 0  0.34 0 0  0.36 0 0  0.38 0 0  0.4 0 0  0.42 0 0  0.44 0 0  0.46 0 0  0.48 0 0  0.5 0 0  0.52 0 0  0.54 0 0  0.5600000000000001 0 0  0.58 0 0  0.6 0 0  0.62 0 0  0.64 0 0  0.66 0 0  0.68 0 0  0.7 0 0  0.72 0 0  0.74 0 0  0.76 0 0  0.78 0 0  0.8 0 0  0.82 0 0  0.84 0 0  0.86 0 0  0.88 0 0  0.9 0 0  0.92 0 0  0.9399999999999999 0 0  0.96 0 0  0.98 0 0  1 0 0  1.02 0 0  1.04 0 0  1.06 0 0  1.08 0 0  1.1 0 0  1.12 0 0  1.14 0 0  1.16 0 0  1.18 0 0  1.2 0 0  1.22 0 0  1.24 0 0  1.26 0 0  1.28 0 0  1.3 0 0  1.32 0 0  1.34 0 0  1.36 0 0  1.38 0 0  1.4 0 0  1.42 0 0  1.44 0 0  1.46 0 0  1.48 0 0  1.5 0 0  1.52 0 0  1.54 0 0  1.56 0 0  1.58 0 0  1.6 0 0  1.62 0 0  1.64 0 0  1.66 0 0  1.68 0 0  1.7 0 0  1.72 0 0  1.74 0 0  1.76 0 0  1.78 0 0  1.8 0 0  1.82 0 0  1.84 0 0  1.86 0 0  1.88 0 0  1.9 0 0  1.92 0 0  1.94 0 0  1.96 0 0  1.98 0 0  2 0 0  0 0.02 0  0.02 0.02 0  0.04 0.02 0  0.06 0.02 0  0.08 0.02 0  0.1 0.02 0  0.12 0.02 0  0.14 0.02 0  0.16 0.02 0  0.18 0.02 0  0.2 0.02 0  0.22 0.02 0  0.24 0.02 0  0.26 0.02 0  0.28 0.02 0  0.3 0.02 0  0.32 0.02 0  0.34 0.02 0  0.36 0.02 0  0.38 0.02 0  0.4 0.02 0  0.42 0.02 0  0.44 0.02 0  0.46 0.02 0  0.48 0.02 0  0.5 0.02 0  0.52 0.02 0  0.54 0.02 0  0.5600000000000001 0.02 0  0.58 0.02 0  0.6 0.02 0  0.62 0.02 0  0.64 0.02 0  0.66 0.02 0  0.68 0.02 0  0.7 0.02 0  0.72 0.02 0  0.74 0.02 0  0.76 0.02 0  0.78 0.02 0  0.8 0.02 0  0.82 0.02 0  0.84 0.02 0  0.86 0.02 0  0.88 0.02 0  0.9 0.02 0  0.92 0.02 0  0.9399999999999999 0.02 0  0.96 0.02 0  0.98 0.02 0  1 0.02 0  1.02 0.02 0  1.04 0.02 0  1.06 0.02 0  1.08 0.02 0  1.1 0.02 0  1.12 0.02 0  1.14 0.02 0  1.16 0.02 0  1.18 0.02 0  1.2 0.02 0  1.22 0.02 0  1.24 0.02 0  1.26 0.02 0  1.28 0.02 0  1.3 0.02 0  1.32 0.02 0  1.34 0.02 0  1.36 0.02 0  1.38 0.02 0  1.4 0.02 0  1.42 0.02 0  1.44 0.02 0  1.46 0.02 0  1.48 0.02 0  1.5 0.02 0  1.52 0.02 0  1.54 0.02 0  1.56 0.02 0  1.58 0.02 0  1.6 0.02 0  1.62 0.02 0  1.64 0.02 0  1.66 0.02 0  1.68 0.02 0  1.7 0.02 0  1.72 0.02 0  1.74 0.02 0  1.76 0.02 0  1.78 0.02 0  1.8 0.02 0  1.82 0.02 0  1.84 0.02 0  1.86 0.02 0  1.88 0.02 0  1.9 0.02 0  1.92 0.02 0  1.94 0.02 0  1.96 0.02 0  1.98 0.02 0  2 0.02 0  0 0.04 0  0.02 0.04 0  0.04 0.04 0  0.06 0.04 0  0.08 0.04 0  0.1 0.04 0  0.12 0.04 0  0.14 0.04 0  0.16 0.04 0  0.18 0.04 0  0.2 0.04 0  0.22 0.04 0  0.24 0.04 0  0.26 0.04 0  0.28 0.04 0  0.3 0.04 0  0.32 0.04 0  0.34 0.04 0  0.36 0.04 0  0.38 0.04 0  0.4 0.04 0  0.42 0.04 0  0.44 0.04 0  0.46 0.04 0  0.48 0.04 0  0.5 0.04 0  0.52 0.04 0  0.54 0.04 0  0.5600000000000001 0.04 0  0.58 0.04 0  0.6 0.04 0  0.62 0.04 0  0.64 0.04 0  0.66 0.04 0  0.68 0.04 0  0.7 0.04 0  0.72 0.04 0  0.74 0.04 0  0.76 0.04 0  0.78 0.04 0  0.8 0.04 0  0.82 0.04 0  0.84 0.04 0  0.86 0.04 0  0.88 0.04 0  0.9 0.04 0  0.92 0.04 0  0.9399999999999999 0.04 0  0.96 0.04 0  0.98 0.04 0  1 0.04 0  1.02 0.04 0  1.04 0.04 0  1.06 0.04 0  1.08 0.04 0  1.1 0.04 0  1.12 0.04 0  1.14 0.04 0  1.16 0.04 0  1.18 0.04 0  1.2 0.04 0  1.22 0.04 0  1.24 0.04 0  1.26 0.04 0  1.28 0.04 0  1.3 0.04 0  1.32 0.04 0  1.34 0.04 0  1.36 0.04 0  1.38 0.04 0  1.4 0.04 0  1.42 0.04 0  1.44 0.04 0  1.46 0.04 0  1.48 0.04 0  1.5 0.04 0  1.52 0.04 0  1.54 0.04 0  1.56 0.04 0  1.58 0.04 0  1.6 0.04 0  1.62 0.04 0  1.64 0.04 0  1.66 0.04 0  1.68 0.04 0  1.7 0.04 0  1.72 0.04 0  1.74 0.04 0  1.76 0.04 0  1.78 0.04 0  1.8 0.04 0  1.82 0.04 0  1.84 0.04 0  1.86 0.04 0  1.88 0.04 0  1.9 0.04 0  1.92 0.04 0  1.94 0.04 0  1.96 0.04 0  1.98 0.04 0  2 0.04 0  0 0.06 0  0.02 0.06 0  0.04 0.06 0  0.06 0.06 0  0.08 0.06 0  0.1 0.06 0  0.12 0.06 0  0.14 0.06 0  0.16 0.06 0  0.18 0.06 0  0.2 0.06 0  0.22 0.06 0  0.24 0.06 0  0.26 0.06 0  0.28 0.06 0  0.3 0.06 0  0.32 0.06 0  0.34 0.06 0  0.36 0.06 0  0.38 0.06 0  0.4 0.06 0  0.42 0.06 0  0.44 0.06 0  0.46 0.06 0  0.48 0.06 0  0.5 0.06 0  0.52 0.06 0  0.54 0.06 0  0.5600000000000001 0.06 0  0.58 0.06 0  0.6 0.06 0  0.62 0.06 0  0.64 0.06 0  0.66 0.06 0  0.68 0.06 0  0.7 0.06 0  0.72 0.06 0  0.74 0.06 0  0.76 0.06 0  0.78 0.06 0  0.8 0.06 0  0.82 0.06 0  0.84 0.06 0  0.86 0.06 0  0.88 0.06 0  0.9 0.06 0  0.92 0.06 0  0.9399999999999999 0.06 0  0.96 0.06 0  0.98 0.06 0  1 0.06 0  1.02 0.06 0  1.04 0.06 0  1.06 0.06 0  1.08 0.06 0  1.1 0.06 0  1.12 0.06 0  1.14 0.06 0  1.16 0.06 0  1.18 0.06 0  1.2 0.06 0  1.22 0.06 0  1.24 0.06 0  1.26 0.06 0  1.28 0.06 0  1.3 0.06 0  1.32 0.06 0  1.34 0.06 0  1.36 0.06 0  1.38 0.06 0  1.4 0.06 0  1.42 0.06 0  1.44 0.06 0  1.46 0.06 0  1.48 0.06 0  1.5 0.06 0  1.52 0.06 0  1.54 0.06 0  1.56 0.06 0  1.58 0.06 0  1.6 0.06 0  1.62 0.06 0  1.64 0.06 0  1.66 0.06 0  1.68 0.06 0  1.7 0.06 0  1.72 0.06 0  1.74 0.06 0  1.76 0.06 0  1.78 0.06 0  1.8 0.06 0  1.82 0.06 0  1.84 0.06 0  1.86 0.06 0  1.88 0.06 0  1.9 0.06 0  1.92 0.06 0  1.94 0.06 0  1.96 0.06 0  1.98 0.06 0  2 0.06 0  0 0.08 0  0.02 0.08 0  0.04 0.08 0  0.06 0.08 0  0.08 0.08 0  0.1 0.08 0  0.12 0.08 0  0.14 0.08 0  0.16 0.08 0  0.18 0.08 0  0.2 0.08 0  0.22 0.08 0  0.24 0.08 0  0.26 0.08 0  0.28 0.08 0  0.3 0.08 0  0.32 0.08 0  0.34 0.08 0  0.36 0.08 0  0.38 0.08 0  0.4 0.08 0  0.42 0.08 0  0.44 0.08 0  0.46 0.08 0  0.48 0.08 0  0.5 0.08 0  0.52 0.08 0  0.54 0.08 0  0.5600000000000001 0.08 0  0.58 0.08 0  0.6 0.08 0  0.62 0.08 0  0.64 0.08 0  0.66 0.08 0  0.68 0.08 0  0.7 0.08 0  0.72 0.08 0  0.74 0.08 0  0.76 0.08 0  0.78 0.08 0  0.8 0.08 0  0.82 0.08 0  0.84 0.08 0  0.86 0.08 0  0.88 0.08 0  0.9 0.08 0  0.92 0.08 0  0.9399999999999999 0.08 0  0.96 0.08 0  0.98 0.08 0  1 0.08 0  1.02 0.08 0  1.04 0.08 0  1.06 0.08 0  1.08 0.08 0  1.1 0.08 0  1.12 0.08 0  1.14 0.08 0  1.16 0.08 0  1.18 0.08 0  1.2 0.08 0  1.22 0.08 0  1.24 0.08 0  1.26 0.08 0  1.28 0.08 0  1.3 0.08 0  1.32 0.08 0  1.34 0.08 0  1.36 0.08 0  1.38 0.08 0  1.4 0.08 0  1.42 0.08 0  1.44 0.08 0  1.46 0.08 0  1.48 0.08 0  1.5 0.08 0  1.52 0.08 0  1.54 0.08 0  1.56 0.08 0  1.58 0.08 0  1.6 0.08 0  1.62 0.08 0  1.64 0.08 0  1.66 0.08 0  1.68 0.08 0  1.7 0.08 0  1.72 0.08 0  1.74 0.08 0  1.76 0.08 0  1.78 0.08 0  1.8 0.08 0  1.82 0.08 0  1.84 0.08 0  1.86 0.08 0  1.88 0.08 0  1.9 0.08 0  1.92 0.08 0  1.94 0.08 0  1.96 0.08 0  1.98 0.08 0  2 0.08 0  0 0.1 0  0.02 0.1 0  0.04 0.1 0  0.06 0.1 0  0.08 0.1 0  0.1 0.1 0  0.12 0.1 0  0.14 0.1 0  0.16 0.1 0  0.18 0.1 0  0.2 0.1 0  0.22 0.1 0  0.24 0.1 0  0.26 0.1 0  0.28 0.1 0  0.3 0.1 0  0.32 0.1 0  0.34 0.1 0  0.36 0.1 0  0.38 0.1 0  0.4 0.1 0  0.42 0.1 0  0.44 0.1 0  0.46 0.1 0  0.48 0.1 0  0.5 0.1 0  0.52 0.1 0  0.54 0.1 0  0.5600000000000001 0.1 0  0.58 0.1 0  0.6 0.1 0  0.62 0.1 0  0.64 0.1 0  0.66 0.1 0  0.68 0.1 0  0.7 0.1 0  0.72 0.1 0  0.74 0.1 0  0.76 0.1 0  0.78 0.1 0  0.8 0.1 0  0.82 0.1 0  0.84 0.1 0  0.86 0.1 0  0.88 0.1 0  0.9 0.1 0  0.92 0.1 0  0.9399999999999999 0.1 0  0.96 0.1 0  0.98 0.1 0  1 0.1 0  1.02 0.1 0  1.04 0.1 0  1.06 0.1 0  1.08 0.1 0  1.1 0.1 0  1.12 0.1 0  1.14 0.1 0  1.16 0.1 0  1.18 0.1 0  1.2 0.1 0  1.22 0.1 0  1.24 0.1 0  1.26 0.1 0  1.28 0.1 0  1.3 0.1 0  1.32 0.1 0  1.34 0.1 0  1.36 0.1 0  1.38 0.1 0  1.4 0.1 0  1.42 0.1 0  1.44 0.1 0  1.46 0.1 0  1.48 0.1 0  1.5 0.1 0  1.52 0.1 0  1.54 0.1 0  1.56 0.1 0  1.58 0.1 0  1.6 0.1 0  1.62 0.1 0  1.64 0.1 0  1.66 0.1 0  1.68 0.1 0  1.7 0.1 0  1.72 0.1 0  1.74 0.1 0  1.76 0.1 0  1.78 0.1 0  1.8 0.1 0  1.82 0.1 0  1.84 0.1 0  1.86 0.1 0  1.88 0.1 0  1.9 0.1 0  1.92 0.1 0  1.94 0.1 0  1.96 0.1 0  1.98 0.1 0  2 0.1 0  0 0.12 0  0.02 0.12 0  0.04 0.12 0  0.06 0.12 0  0.08 0.12 0  0.1 0.12 0  0.12 0.12 0  0.14 0.12 0  0.16 0.12 0  0.18 0.12 0  0.2 0.12 0  0.22 0.12 0  0.24 0.12 0  0.26 0.12 0  0.28 0.12 0  0.3 0.12 0  0.32 0.12 0  0.34 0.12 0  0.36 0.12 0  0.38 0.12 0  0.4 0.12 0  0.42 0.12 0  0.44 0.12 0  0.46 0.12 0  0.48 0.12 0  0.5 0.12 0  0.52 0.12 0  0.54 0.12 0  0.5600000000000001 0.12 0  0.58 0.12 0  0.6 0.12 0  0.62 0.12 0  0.64 0.12 0  0.66 0.12 0  0.68 0.12 0  0.7 0.12 0  0.72 0.12 0  0.74 0.12 0  0.76 0.12 0  0.78 0.12 0  0.8 0.12 0  0.82 0.12 0  0.84 0.12 0  0.86 0.12 0  0.88 0.12 0  0.9 0.12 0  0.92 0.12 0  0.9399999999999999 0.12 0  0.96 0.12 0  0.98 0.12 0  1 0.12 0  1.02 0.12 0  1.04 0.12 0  1.06 0.12 0  1.08 0.12 0  1.1 0.12 0  1.12 0.12 0  1.14 0.12 0  1.16 0.12 0  1.18 0.12 0  1.2 0.12 0  1.22 0.12 0  1.24 0.12 0  1.26 0.12 0  1.28 0.12 0  1.3 0.12 0  1.32 0.12 0  1.34 0.12 0  1.36 0.12 0  1.38 0.12 0  1.4 0.12 0  1.42 0.12 0  1.44 0.12 0  1.46 0.12 0  1.48 0.12 0  1.5 0.12 0  1.52 0.12 0  1.54 0.12 0  1.56 0.12 0  1.58 0.12 0  1.6 0.12 0  1.62 0.12 0  1.64 0.12 0  1.66 0.12 0  1.68 0.12 0  1.7 0.12 0  1.72 0.12 0  1.74 0.12 0  1.76 0.12 0  1.78 0.12 0  1.8 0.12 0  1.82 0.12 0  1.84 0.12 0  1.86 0.12 0  1.88 0.12 0  1.9 0.12 0  1.92 0.12 0  1.94 0.12 0  1.96 0.12 0  1.98 0.12 0  2 0.12 0  0 0.14 0  0.02 0.14 0  0.04 0.14 0  0.06 0.14 0  0.08 0.14 0  0.1 0.14 0  0.12 0.14 0  0.14 0.14 0  0.16 0.14 0  0.18 0.14 0  0.2 0.14 0  0.22 0.14 0  0.24 0.14 0  0.26 0.14 0  0.28 0.14 0  0.3 0.14 0  0.32 0.14 0  0.34 0.14 0  0.36 0.14 0  0.38 0.14 0  0.4 0.14 0  0.42 0.14 0  0.44 0.14 0  0.46 0.14 0  0.48 0.14 0  0.5 0.14 0  0.52 0.14 0  0.54 0.14 0  0.5600000000000001 0.14 0  0.58 0.14 0  0.6 0.14 0  0.62 0.14 0  0.64 0.14 0  0.66 0.14 0  0.68 0.14 0  0.7 0.14 0  0.72 0.14 0  0.74 0.14 0  0.76 0.14 0  0.78 0.14 0  0.8 0.14 0  0.82 0.14 0  0.84 0.14 0  0.86 0.14 0  0.88 0.14 0  0.9 0.14 0  0.92 0.14 0  0.9399999999999999 0.14 0  0.96 0.14 0  0.98 0.14 0  1 0.14 0  1.02 0.14 0  1.04 0.14 0  1.06 0.14 0  1.08 0.14 0  1.1 0.14 0  1.12 0.14 0  1.14 0.14 0  1.16 0.14 0  1.18 0.14 0  1.2 0.14 0  1.22 0.14 0  1.24 0.14 0  1.26 0.14 0  1.28 0.14 0  1.3 0.14 0  1.32 0.14 0  1.34 0.14 0  1.36 0.14 0  1.38 0.14 0  1.4 0.14 0  1.42 0.14 0  1.44 0.14 0  1.46 0.14 0  1.48 0.14 0  1
[...]
<PointData  Scalars="sols[i]"> 
<DataArray  type="Float64"  Name="sols[i]"  format="ascii">5.9961816328298265e-03  3.9911710604885230e-03  3.9911710614137681e-03  3.9911710633047416e-03  3.9911710669238163e-03  3.9911710736697517e-03  3.9911710860501600e-03  3.9911711084885783e-03  3.9911711486861519e-03  3.9911712198910402e-03  3.9911713446448708e-03  3.9911715609403584e-03  3.9911719323670854e-03  3.9911725650033395e-03  3.9911736360347854e-03  3.9911754432568171e-03  3.9911784922398554e-03  3.9911836510931609e-03  3.9911924235681078e-03  3.9912074199064942e-03  3.9912331352913678e-03  3.9912771581496953e-03  3.9913518823027358e-03  3.9914766197556755e-03  3.9916796302890975e-03  3.9919989846548057e-03  3.9924805264539426e-03  3.9931709768037862e-03  3.9941052189938556e-03  3.9952895942781388e-03  3.9966868468450639e-03  3.9982100080007913e-03  3.9997300450784253e-03  4.0010975994855744e-03  4.0021730311832066e-03  4.0028534830744110e-03  4.0030873095695226e-03  4.0028749768455524e-03  4.0022627002374005e-03  4.0013334632974448e-03  4.0001941606287034e-03  3.9989577931380067e-03  3.9977252548765024e-03  3.9965726732733757e-03  3.9955470391684180e-03  3.9946688697318064e-03  3.9939388408640813e-03  3.9933452680991806e-03  3.9928704080208202e-03  3.9924948687411902e-03  3.9922002274447241e-03  3.9919702842302349e-03  3.9917914448538696e-03  3.9916526335623476e-03  3.9915449983150674e-03  3.9914615557113068e-03  3.9913968465550053e-03  3.9913466303563303e-03  3.9913076271426949e-03  3.9912773060056190e-03  3.9912537157315488e-03  3.9912353513919044e-03  3.9912210506011210e-03  3.9912099136138728e-03  3.9912012422127193e-03  3.9911944931853849e-03  3.9911892429773475e-03  3.9911851608067312e-03  3.9911819881356270e-03  3.9911795228988857e-03  3.9911776073022166e-03  3.9911761183173827e-03  3.9911749602377011e-03  3.9911740588221261e-03  3.9911733566710302e-03  3.9911728095573850e-03  3.9911723834982456e-03  3.9911720524035002e-03  3.9911717961857518e-03  3.9911715992548800e-03  3.9911714493481246e-03  3.9911713366581822e-03  3.9911712532187732e-03  3.9911711924974962e-03  3.9911711491363881e-03  3.9911711187827744e-03  3.9911710979634021e-03  3.9911710839717054e-03  3.9911710747549721e-03  3.9911710688001964e-03  3.9911710650236262e-03  3.9911710626702630e-03  3.9911710612278673e-03  3.9911710603574724e-03  3.9911710598398310e-03  3.9911710595363272e-03  3.9911710593610638e-03  3.9911710592619547e-03  3.9911710592083725e-03  3.9911710591834662e-03  1.2072874033405919e-02  3.9911710603979704e-03  1.9932731658677560e-03  1.9932731663620399e-03  1.9932731673966120e-03  1.9932731693962313e-03  1.9932731731508902e-03  1.9932731800908778e-03  1.9932731927622691e-03  1.9932732156343201e-03  1.9932732564498777e-03  1.9932733284558383e-03  1.9932734540566910e-03  1.9932736707886848e-03  1.9932740411567357e-03  1.9932746691009233e-03  1.9932757282245498e-03  1.9932775114154819e-03  1.9932805196805439e-03  1.9932856218418614e-03  1.9932943375737876e-03  1.9933093221216830e-03  1.9933351511946260e-03  1.9933794914535011e-03  1.9934546449885582e-03  1.9935792079851162e-03  1.9937791411172982e-03  1.9940869860882908e-03  1.9945376041263919e-03  1.9951593073150096e-03  1.9959612922104829e-03  1.9969215773117700e-03  1.9979813057549654e-03  1.9990493016188151e-03  2.0000176769372994e-03  2.0007846292360485e-03  2.0012752618205265e-03  2.0014521258253331e-03  2.0013149304063389e-03  2.0008954416279577e-03  2.0002517511128379e-03  1.9994598725559514e-03  1.9986007039324086e-03  1.9977462421815304e-03  1.9969501367518411e-03  1.9962447277867769e-03  1.9956433359484488e-03  1.9951453684273171e-03  1.9947418508572518e-03  1.9944199176030429e-03  1.9941658506733920e-03  1.9939668186581558e-03  1.9938116594816649e-03  1.9936910760721318e-03  1.9935975318636653e-03  1.9935250234645618e-03  1.9934688253373458e-03  1.9934252492652786e-03  1.9933914338984538e-03  1.9933651681372793e-03  1.9933447471241939e-03  1.9933288572345541e-03  1.9933164856838575e-03  1.9933068503674807e-03  1.9932993459068809e-03  1.9932935024437391e-03  1.9932889543187123e-03  1.9932854163077587e-03  1.9932826655676139e-03  1.9932805278581817e-03  1.9932788669574531e-03  1.9932775764667406e-03  1.9932765734214227e-03  1.9932757932817776e-03  1.9932751859901509e-03  1.9932747128563856e-03  1.9932743440860845e-03  1.9932740568059321e-03  1.9932738334750523e-03  1.9932736606038041e-03  1.9932735277297304e-03  1.9932734266201852e-03  1.9932733506792281e-03  1.9932732945332214e-03  1.9932732537607718e-03  1.9932732247250617e-03  1.9932732044668339e-03  1.9932731906245780e-03  1.9932731813607847e-03  1.9932731752857692e-03  1.9932731713791776e-03  1.9932731689135180e-03  1.9932731673845726e-03  1.9932731664521054e-03  1.9932731658922100e-03  1.9932731655608873e-03  1.9932731653675476e-03  1.9932731652563735e-03  1.9932731651936537e-03  1.9932731651595950e-03  1.9932731651431603e-03  3.9911710591821253e-03  3.9911710610186606e-03  1.9932731662246619e-03  1.9932731669762677e-03  1.9932731685616731e-03  1.9932731716544240e-03  1.9932731775258328e-03  1.9932731885105937e-03  1.9932732088237893e-03  1.9932732459625522e-03  1.9932733130654935e-03  1.9932734328166721e-03  1.9932736438132213e-03  1.9932740108591597e-03  1.9932746416080238e-03  1.9932757138164904e-03  1.9932775211843113e-03  1.9932805533174852e-03  1.9932856402783234e-03  1.9932942198164394e-03  1.9933088317320331e-03  1.9933340107208546e-03  1.9933778219539990e-03  1.9934543098059959e-03  1.9935869922028996e-03  1.9938130431502617e-03  1.9941867760734904e-03  1.9947795036155611e-03  1.9956714619267101e-03  1.9969319835916586e-03  1.9985889857197228e-03  2.0005986612717020e-03  2.0028310735690329e-03  2.0050804214752690e-03  2.0071028426879023e-03  2.0086734276804972e-03  2.0096362566451838e-03  2.0099239658731625e-03  2.0095489192997508e-03  2.0085880492783340e-03  2.0071732205728665e-03  2.0054750743305483e-03  2.0036713209099851e-03  2.0019136270643784e-03  2.0003077094099221e-03  1.9989104302009656e-03  1.9977383123934056e-03  1.9967809559349008e-03  1.9960137050462146e-03  1.9954067725893904e-03  1.9949307827749215e-03  1.9945595556753026e-03  1.9942710463831397e-03  1.9940472915552418e-03  1.9938739417083569e-03  1.9937396780998671e-03  1.9936356514534876e-03  1.9935549894862896e-03  1.9934923805472117e-03  1.9934437310891442e-03  1.9934058904191266e-03  1.9933764332163650e-03  1.9933534900525491e-03  1.9933356167817920e-03  1.9933216946445213e-03  1.9933108543031671e-03  1.9933024183088591e-03  1.9932958575544124e-03  1.9932907582139738e-03  1.9932867964889203e-03  1.9932837191538582e-03  1.9932813284401531e-03  1.9932794702061164e-03  1.9932780246347459e-03  1.9932768988980961e-03  1.9932760213571829e-03  1.9932753369539531e-03  1.9932748035199795e-03  1.9932743887917125e-03  1.9932740679883100e-03  1.9932738218679615e-03  1.9932736352193023e-03  1.9932734957570390e-03  1.9932733933763110e-03  1.9932733196933398e-03  1.9932732677796880e-03  1.9932732319988752e-03  1.9932732078759723e-03  1.9932731919616578e-03  1.9932731816803928e-03  1.9932731751696876e-03  1.9932731711238142e-03  1.9932731686537640e-03  1.9932731671705125e-03  1.9932731662934723e-03  1.9932731657823018e-03  1.9932731654884448e-03  1.9932731653219153e-03  1.9932731652292754e-03  1.9932731651796276e-03  1.9932731651559868e-03  3.9911710592009158e-03  3.9911710621695672e-03  1.9932731669038699e-03  1.9932731681533179e-03  1.9932731708093279e-03  1.9932731760506877e-03  1.9932731861345976e-03  1.9932732052692554e-03  1.9932732411663532e-03  1.9932733077384929e-03  1.9932734296858948e-03  1.9932736501324377e-03  1.9932740430843067e-03  1.9932747334154453e-03  1.9932759286195706e-03  1.9932779694388091e-03  1.9932814124644749e-03  1.9932871708973638e-03  1.9932967678878127e-03  1.9933128143458725e-03  1.9933399299601872e-03  1.9933865007313585e-03  1.9934678986128331e-03  1.9936119821246522e-03  1.9938675773564806e-03  1.9943156838372130e-03  1.9950806805464059e-03  1.9963344898251988e-03  1.9982816200617860e-03  2.0011117812729897e-03  2.0049182084711258e-03  2.0096123750253671e-03  2.0148821716882634e-03  2.0202129316809186e-03  2.0249847839836936e-03  2.0286331131406155e-03  2.0307881943279894e-03  2.0313156885793022e-03  2.0302713578295791e-03  2.0278539783510929e-03  2.0243947870287613e-03  2.0203253438477848e-03  2.0160861874672412e-03  2.0120359959824178e-03  2.0084059262263300e-03  2.0053032506601102e-03  2.0027407520866068e-03  2.0006744415107542e-03  1.9990350632581684e-03  1.9977479953531426e-03  1.9967440214454855e-03  1.9959639171370611e-03  1.9953591667790167e-03  1.9948909420845762e-03  1.9945285886761948e-03  1.9942481117569653e-03  1.9940308524928063e-03  1.9938623817534877e-03  1.9937315833867281e-03  1.9936299102108397e-03  1.9935507935521153e-03  1.9934891808287068e-03  1.9934411778709292e-03  1.9934037750836691e-03  1.9933746389529422e-03  1.9933519540873005e-03  1.9933343039991950e-03  1.9933205810594864e-03  1.9933099181621786e-03  1.9933016364552529e-03  1.9932952049545138e-03  1.9932902090404364e-03  1.9932863257160747e-03  1.9932833041011746e-03  1.9932809500314880e-03  1.9932791138803437e-03  1.9932776808794040e-03  1.9932765633453977e-03  1.9932756943589129e-03  1.9932750225961976e-03  1.9932745081599943e-03  1.9932741193521542e-03  1.9932738303512915e-03  1.9932736197064249e-03  1.9932734694731303e-03  1.9932733647611946e-03  1.9932732934694972e-03  1.9932732460476526e-03  1.9932732152077881e-03  1.9932731955794683e-03  1.9932731833384354e-03  1.9932731758483912e-03  1.9932731713458727e-03  1.9932731686833870e-03  1.9932731671328018e-03  1.9932731662424910e-03  1.9932731657381448e-03  1.9932731654563867e-03  1.9932731653017786e-03  1.9932731652199682e-03  1.9932731651814656e-03  3.9911710592399055e-03  3.9911710641365216e-03  1.9932731680777521e-03  1.9932731702039133e-03  1.9932731747669174e-03  1.9932731838837245e-03  1.9932732016664486e-03  1.9932732358964585e-03  1.9932733010480388e-03  1.9932734236198951e-03  1.9932736513227768e-03  1.9932740685387721e-03  1.9932748216962663e-03  1.9932761599208331e-03  1.9932784988415568e-03  1.9932825197279303e-03  1.9932893250601295e-03  1.9933006926417460e-03  1.9933195205607776e-03  1.9933506689956220e-03  1.9934026400845028e-03  1.9934909684730618e-03  1.9936448633623587e-03  1.9939194119625928e-03  1.9944159404657099e-03  1.9953115776145626e-03  1.9968935349208919e-03  1.9995821413371206e-03  2.0039099603017833e-03  2.0104122956898138e-03  2.0194044469621628e-03  2.0307328911985602e-03  2.0436483445383700e-03  2.0568279864458840e-03  2.0686154859795801e-03  2.0775001898589007e-03  2.0825479914935684e-03  2.0834919868881092e-03  2.0805368726728927e-03  2.0742083217232771e-03  2.0653821723039707e-03  2.0552219393208636e-03  2.0448773754536582e-03  2.0352223850964566e-03  2.0267592665992491e-03  2.0196693682346094e-03  2.0139116693721256e-03  2.0093300931942350e-03  2.0057314963887558e-03  2.0029266598709907e-03  2.0007495715131823e-03  1.9990635888485868e-03  1.9977595743178663e-03  1.9967515243072384e-03  1.9959722130884340e-03  1.9953693555111738e-03  1.9949024857443061e-03  1.9945404401463134e-03  1.9942592870163065e-03  1.9940406651560005e-03  1.9938704833428050e-03  1.9937379097237236e-03  1.9936345957656336e-03  1.9935540862273515e-03  1.9934913715699688e-03  1.9934425499949261e-03  1.9934045733453988e-03  1.9933750555461323e-03  1.9933521272169053e-03  1.9933343242778288e-03  1.9933205015724926e-03  1.9933097652082630e-03  1.9933014192361829e-03  1.9932949235263965e-03  1.9932898604937497e-03  1.9932859088071381e-03  1.9932828225014258e-03  1.9932804141592833e-03  1.9932785411420724e-03  1.9932770942292779e-03  1.9932759883941891e-03  1.9932751556835260e-03  1.9932745401982817e-03  1.9932740949986493e-03  1.9932737804974399e-03  1.9932735637422450e-03  1.9932734180196109e-03  1.9932733224050543e-03  1.9932732611136991e-03  1.9932732226792572e-03  1.9932731990678978e-03  1.9932731848363865e-03  1.9932731764079567e-03  1.9932731714965238e-03  1.9932731686769550e-03  1.9932731670805337e-03  1.9932731661884131e-03  1.9932731656965167e-03  1.9932731654299343e-03  1.9932731652904526e-03  1.9932731652254109e-03  3.9911710593075736e-03  3.9911710673618626e-03  1.9932731700185889e-03  1.9932731736283251e-03  1.9932731814612495e-03  1.9932731973133790e-03  1.9932732286636104e-03  1.9932732898778668e-03  1.9932734080918991e-03  1.9932736337600135e-03  1.9932740591337350e-03  1.9932748498212643e-03  1.9932762972046936e-03  1.9932789029248215e-03  1.9932835109840370e-03  1.9932915090258687e-03  1.9933051315738971e-03  1.9933279264367368e-03  1.9933655239600268e-03  1.9934270536309585e-03  1.9935280340889882e-03  1.9936965612641698e-03  1.9939863948977596e-03  1.9945030679404600e-03  1.9954513682920211e-03  1.9972112829451539e-03  2.0004387463641062e-03  2.0061600074985932e-03  2.0157785696875738e-03  2.0308540358984339e-03  2.0525000686628728e-03  2.0806370897236718e-03  2.1135823442604519e-03  2.1478938409096059e-03  2.1788395311803425e-03  2.2019397754591218e-03  2.2145272019117577e-03  2.2160477669882521e-03  2.2072320076238707e-03  2.1895612060787496e-03  2.1655963840227907e-03  2.1388222922482047e-03  2.1124487144810068e-03  2.0886353975845271e-03  2.0683836741318259e-03  2.0518586030034416e-03  2.0387194700260051e-03  2.0284297677878420e-03  2.0204424802617686e-03  2.0142686553913510e-03  2.0095033578716556e-03  2.0058272340629040e-03  2.0029918297143740e-03  2.0008043142826066e-03  1.9991155372906344e-03  1.9978102913897106e-03  1.9967999066931820e-03  1.9960164611432501e-03  1.9954079997788455e-03  1.9949347616284949e-03  1.9945662854677902e-03  1.9942791758163362e-03  1.9940554025109887e-03  1.9938810195225154e-03  1.9937451956037514e-03  1.9936394851325103e-03  1.9935572828174621e-03  1.9934934132999817e-03  1.9934438195325869e-03  1.9934053235775742e-03  1.9933754403379527e-03  1.9933522309922677e-03  1.9933341871364138e-03  1.9933201391057706e-03  1.9933091835867222e-03  1.9933006265362967e-03  1.9932939378866986e-03  1.9932887149716198e-03  1.9932846523286105e-03  1.9932815164960750e-03  1.9932791253817151e-03  1.9932773323899102e-03  1.9932760155186237e-03  1.9932750710791734e-03  1.9932744109056604e-03  1.9932739614599540e-03  1.9932736633837852e-03  1.9932734706274800e-03  1.9932733489196647e-03  1.9932732737643110e-03  1.9932732282997062e-03  1.9932732013105067e-03  1.9932731855633423e-03  1.9932731765196091e-03  1.9932731714004735e-03  1.9932731685413188e-03  1.9932731669644143e-03  1.9932731661057921e-03  1.9932731656459100e-03  1.9932731654077767e-03  1.9932731652975697e-03  3.9911710594185048e-03  3.9911710725027338e-03  1.9932731731373550e-03  1.9932731791956412e-03  1.9932731924989242e-03  1.9932732197752365e-03  1.9932732744696786e-03  1.9932733828064331e-03  1.9932735951170544e-03  1.9932740065368481e-03  1.9932747939569230e-03  1.9932762803261633e-03  1.9932790433068782e-03  1.9932840928147543e-03  1.9932931503887203e-03  1.9933090715858917e-03  1.9933364621359225e-03  1.9933825634672283e-03  1.9934585769965808e-03  1.9935819109730729e-03  1.9937807210289311e-03  1.9941042509340921e-03  1.9946468573276287e-03  1.9956010008752106e-03  1.9973637137781536e-03  2.0007256346013971e-03  2.0071570339094688e-03  2.0191522729510018e-03  2.0404716645845236e-03  2.0759048426982098e-03  2.1297715317539863e-03  2.2036708647746716e-03  2.2950661631807741e-03  2.3953233443540990e-03  2.4890951333084461e-03  2.5597340834331837e-03  2.5968619544807108e-03  2.5986045522533234e-03  2.5678770428790797e-03  2.5099157417010497e-03  2.4343955551583384e-03  2.3544304161034198e-03  2.2802360938614570e-03  2.2169743294807058e-03  2.1657615746609425e-03  2.1256535784264495e-03  2.0947531603528360e-03  2.0711041234134763e-03  2.0530556496602156e-03  2.0392717953807643e-03  2.0287195953876029e-03  2.0206278047578603e-03  2.0144148836961600e-03  2.0096378037442832e-03  2.0059590959380516e-03  2.0031207200518174e-03  2.0009258061509999e-03  1.9992248573335362e-03  1.9979041840307468e-03  1.9968770997864540e-03  1.9960773871496129e-03  1.9954542703036096e-03  1.9949686416510836e-03  1.9945902583857920e-03  1.9942956223134374e-03  1.9940663943845797e-03  1.9938882195469558e-03  1.9937498432514183e-03  1.9936424402541802e-03  1.9935590987882577e-03  1.9934944168428304e-03  1.9934441830372000e-03  1.9934051237962477e-03  1.9933747031051566e-03  1.9933509646285303e-03  1.9933324076688310e-03  1.9933178889669067e-03  1.9933065431490976e-03  1.9932977163260633e-03  1.9932909098590731e-03  1.9932857338524302e-03  1.9932818715156508e-03  1.9932790554776452e-03  1.9932770553982579e-03  1.9932756738272740e-03  1.9932747459836765e-03  1.9932741397325582e-03  1.9932737538024487e-03  1.9932735140196236e-03  1.9932733683303686e-03  1.9932732815972232e-03  1.9932732309102270e-03  1.9932732017828125e-03  1.9932731852987089e-03  1.9932731760990930e-03  1.9932731710302644e-03  1.9932731682708385e-03  1.9932731667868294e-03  1.9932731660011007e-03  1.9932731655982910e-03  1.9932731654131331e-03  3.9911710595954535e-03  3.9911710804985245e-03  1.9932731780314631e-03  1.9932731880462212e-03  1.9932732103052561e-03  1.9932732565426099e-03  1.9932733505455841e-03  1.9932735394411743e-03  1.9932739151867951e-03  1.9932746546341947e-03  1.9932760925947036e-03  1.9932788517947873e-03  1.9932840673318073e-03  1.9932937610719478e-03  1.9933114407146933e-03  1.9933430121672198e-03  1.9933980926683313e-03  1.9934917966472200e-03  1.9936470976495433e-03  1.9938982017889866e-03  1.9942967337600653e-03  1.9949266236761200e-03  1.9959435024600714e-03  1.9976742317059744e-03  2.0008433528268229e-03  2.0070258929802635e-03  2.0194312582429113e-03  2.0440824707589861e-03  2.0913078690926795e-03  2.1771194581386567e-03  2.3211954567844057e-03  2.5419261058514126e-03  2.8540902088053655e-03  3.2541267961205865e-03  3.6876989140660378e-03  4.0479384080138042e-03  4.2400920841270950e-03  4.2356283977631054e-03  4.0545619841130826e-03  3.7422159706635323e-03  3.3752340111980429e-03  3.0368440859428018e-03  2.7654151761756568e-03  2.5620059905760782e-03  2.4132558762333294e-03  2.3056262243219871e-03  2.2273668838712346e-03  2.1698861151716450e-03  2.1273382745586890e-03  2.0955459934613573e-03  2.0715759234671088e-03  2.0534079447798413e-03  2.0395841210786594e-03  2.0290269052023633e-03  2.0209388398740665e-03  2.0147213622470758e-03  2.0099252825836293e-03  2.0062149381202131e-03  2.0033375313818261e-03  2.0011015567108028e-03  1.9993615887878022e-03  1.9980065039351836e-03  1.9969508850869368e-03  1.9961287865758368e-03  1.9954889960023285e-03  1.9949915342231143e-03  1.9946051028217737e-03  1.9943051629755541e-03  1.9940724770326373e-03  1.9938919891445976e-03  1.9937519437453026e-03  1.9936431860632545e-03  1.9935586078419576e-03  1.9934927082725005e-03  1.9934412488324094e-03  1.9934009837339951e-03  1.9933694473709788e-03  1.9933447814466029e-03  1.9933255886398281e-03  1.9933108063644456e-03  1.9932996010305565e-03  1.9932912873971806e-03  1.9932852771932298e-03  1.9932810558622852e-03  1.9932781789305781e-03  1.9932762760134790e-03  1.9932750528805967e-03  1.9932742874099762e-03  1.9932738199379550e-03  1.9932735407155889e-03  1.9932733772362508e-03  1.9932732832286708e-03  1.9932732300394357e-03  1.9932732003827966e-03  1.9932731840658102e-03  1.9932731751970485e-03  1.9932731704313390e-03  1.9932731678997742e-03  1.9932731665746771e-03  1.9932731659020567e-03  1.9932731655948823e-03  3.9911710598724785e-03  3.9911710926436089e-03  1.9932731855383853e-03  1.9932732018115920e-03  1.9932732384129455e-03  1.9932733154256507e-03  1.9932734741547956e-03  1.9932737977416833e-03  1.9932744511911692e-03  1.9932757575976466e-03  1.9932783403675256e-03  1.9932833823936469e-03  1.9932930852762545e-03  1.9933114557313687e-03  1.9933455967386538e-03  1.9934077177575491e-03  1.9935180581590077e-03  1.9937087794556275e-03  1.9940286132394936e-03  1.9945479429058699e-03  1.9953653198527231e-03  1.9966228776247532e-03  1.99855817353