<?xml version="1.0"?>
<VTKFile type="UnstructuredGrid"  version="0.1"  >
<UnstructuredGrid>
<Piece  NumberOfPoints="5151" NumberOfCells="10000">
<Points>
<DataArray  type="Float64"  NumberOfComponents="3"  format="ascii">0 0 0  0.02 0 0  0.04 0 0  0.06 0 0  0.08 0 0  0.1 0 0  0.12 0 0  0.14 0 0  0.16 0 0  0.18 0 0  0.2 0 0  0.22 0 0  0.24 0 0  0.26 0 0  0.28 0 0  0.3 0 0  0.32 0 0  0.34 0 0  0.36 0 0  0.38 0 0  0.4 0 0  0.42 0 0  0.44 0 0  0.46 0 0  0.48 0 0  0.5 0 0  0.52 0 0  0.54 0 0  0.5600000000000001 0 0  0.58 0 0  0.6 0 0  0.62 0 0  0.64 0 0  0.66 0 0  0.68 0 0  0.7 0 0  0.72 0 0  0.74 0 0  0.76 0 0  0.78 0 0  0.8 0 0  0.82 0 0  0.84 0 0  0.86 0 0  0.88 0 0  0.9 0 0  0.92 0 0  0.9399999999999999 0 0  0.96 0 0  0.98 0 0  1 0 0  1.02 0 0  1.04 0 0  1.06 0 0  1.08 0 0  1.1 0 0  1.12 0 0  1.14 0 0  1.16 0 0  1.18 0 0  1.2 0 0  1.22 0 0  1.24 0 0  1.26 0 0  1.28 0 0  1.3 0 0  1.32 0 0  1.34 0 0  1.36 0 0  1.38 0 0  1.4 0 0  1.42 0 0  1.44 0 0  1.46 0 0  1.48 0 0  1.5 0 0  1.52 0 0  1.54 0 0  1.56 0 0  1.58 0 0  1.6 0 0  1.62 0 0  1.64 0 0  1.66 0 0  1.68 0 0  1.7 0 0  1.72 0 0  1.74 0 0  1.76 0 0  1.78 0 0  1.8 0 0  1.82 0 0  1.84 0 0  1.86 0 0  1.88 0 0  1.9 0 0  1.92 0 0  1.94 0 0  1.96 0 0  1.98 0 0  2 0 0  0 0.02 0  0.02 0.02 0  0.04 0.02 0  0.06 0.02 0  0.08 0.02 0  0.1 0.02 0  0.12 0.02 0  0.14 0.02 0  0.16 0.02 0  0.18 0.02 0  0.2 0.02 0  0.22 0.02 0  0.24 0.02 0  0.26 0.02 0  0.28 0.02 0  0.3 0.02 0  0.32 0.02 0  0.34 0.02 0  0.36 0.02 0  0.38 0.02 0  0.4 0.02 0  0.42 0.02 0  0.44 0.02 0  0.46 0.02 0  0.48 0.02 0  0.5 0.02 0  0.52 0.02 0  0.54 0.02 0  0.5600000000000001 0.02 0  0.58 0.02 0  0.6 0.02 0  0.62 0.02 0  0.64 0.02 0  0.66 0.02 0  0.68 0.02 0  0.7 0.02 0  0.72 0.02 0  0.74 0.02 0  0.76 0.02 0  0.78 0.02 0  0.8 0.02 0  0.82 0.02 0  0.84 0.02 0  0.86 0.02 0  0.88 0.02 0  0.9 0.02 0  0.92 0.02 0  0.9399999999999999 0.02 0  0.96 0.02 0  0.98 0.02 0  1 0.02 0  1.02 0.02 0  1.04 0.02 0  1.06 0.02 0  1.08 0.02 0  1.1 0.02 0  1.12 0.02 0  1.14 0.02 0  1.16 0.02 0  1.18 0.02 0  1.2 0.02 0  1.22 0.02 0  1.24 0.02 0  1.26 0.02 0  1.28 0.02 0  1.3 0.02 0  1.32 0.02 0  1.34 0.02 0  1.36 0.02 0  1.38 0.02 0  1.4 0.02 0  1.42 0.02 0  1.44 0.02 0  1.46 0.02 0  1.48 0.02 0  1.5 0.02 0  1.52 0.02 0  1.54 0.02 0  1.56 0.02 0  1.58 0.02 0  1.6 0.02 0  1.62 0.02 0  1.64 0.02 0  1.66 0.02 0  1.68 0.02 0  1.7 0.02 0  1.72 0.02 0  1.74 0.02 0  1.76 0.02 0  1.78 0.02 0  1.8 0.02 0  1.82 0.02 0  1.84 0.02 0  1.86 0.02 0  1.88 0.02 0  1.9 0.02 0  1.92 0.02 0  1.94 0.02 0  1.96 0.02 0  1.98 0.02 0  2 0.02 0  0 0.04 0  0.02 0.04 0  0.04 0.04 0  0.06 0.04 0  0.08 0.04 0  0.1 0.04 0  0.12 0.04 0  0.14 0.04 0  0.16 0.04 0  0.18 0.04 0  0.2 0.04 0  0.22 0.04 0  0.24 0.04 0  0.26 0.04 0  0.28 0.04 0  0.3 0.04 0  0.32 0.04 0  0.34 0.04 0  0.36 0.04 0  0.38 0.04 0  0.4 0.04 0  0.42 0.04 0  0.44 0.04 0  0.46 0.04 0  0.48 0.04 0  0.5 0.04 0  0.52 0.04 0  0.54 0.04 0  0.5600000000000001 0.04 0  0.58 0.04 0  0.6 0.04 0  0.62 0.04 0  0.64 0.04 0  0.66 0.04 0  0.68 0.04 0  0.7 0.04 0  0.72 0.04 0  0.74 0.04 0  0.76 0.04 0  0.78 0.04 0  0.8 0.04 0  0.82 0.04 0  0.84 0.04 0  0.86 0.04 0  0.88 0.04 0  0.9 0.04 0  0.92 0.04 0  0.9399999999999999 0.04 0  0.96 0.04 0  0.98 0.04 0  1 0.04 0  1.02 0.04 0  1.04 0.04 0  1.06 0.04 0  1.08 0.04 0  1.1 0.04 0  1.12 0.04 0  1.14 0.04 0  1.16 0.04 0  1.18 0.04 0  1.2 0.04 0  1.22 0.04 0  1.24 0.04 0  1.26 0.04 0  1.28 0.04 0  1.3 0.04 0  1.32 0.04 0  1.34 0.04 0  1.36 0.04 0  1.38 0.04 0  1.4 0.04 0  1.42 0.04 0  1.44 0.04 0  1.46 0.04 0  1.48 0.04 0  1.5 0.04 0  1.52 0.04 0  1.54 0.04 0  1.56 0.04 0  1.58 0.04 0  1.6 0.04 0  1.62 0.04 0  1.64 0.04 0  1.66 0.04 0  1.68 0.04 0  1.7 0.04 0  1.72 0.04 0  1.74 0.04 0  1.76 0.04 0  1.78 0.04 0  1.8 0.04 0  1.82 0.04 0  1.84 0.04 0  1.86 0.04 0  1.88 0.04 0  1.9 0.04 0  1.92 0.04 0  1.94 0.04 0  1.96 0.04 0  1.98 0.04 0  2 0.04 0  0 0.06 0  0.02 0.06 0  0.04 0.06 0  0.06 0.06 0  0.08 0.06 0  0.1 0.06 0  0.12 0.06 0  0.14 0.06 0  0.16 0.06 0  0.18 0.06 0  0.2 0.06 0  0.22 0.06 0  0.24 0.06 0  0.26 0.06 0  0.28 0.06 0  0.3 0.06 0  0.32 0.06 0  0.34 0.06 0  0.36 0.06 0  0.38 0.06 0  0.4 0.06 0  0.42 0.06 0  0.44 0.06 0  0.46 0.06 0  0.48 0.06 0  0.5 0.06 0  0.52 0.06 0  0.54 0.06 0  0.5600000000000001 0.06 0  0.58 0.06 0  0.6 0.06 0  0.62 0.06 0  0.64 0.06 0  0.66 0.06 0  0.68 0.06 0  0.7 0.06 0  0.72 0.06 0  0.74 0.06 0  0.76 0.06 0  0.78 0.06 0  0.8 0.06 0  0.82 0.06 0  0.84 0.06 0  0.86 0.06 0  0.88 0.06 0  0.9 0.06 0  0.92 0.06 0  0.9399999999999999 0.06 0  0.96 0.06 0  0.98 0.06 0  1 0.06 0  1.02 0.06 0  1.04 0.06 0  1.06 0.06 0  1.08 0.06 0  1.1 0.06 0  1.12 0.06 0  1.14 0.06 0  1.16 0.06 0  1.18 0.06 0  1.2 0.06 0  1.22 0.06 0  1.24 0.06 0  1.26 0.06 0  1.28 0.06 0  1.3 0.06 0  1.32 0.06 0  1.34 0.06 0  1.36 0.06 0  1.38 0.06 0  1.4 0.06 0  1.42 0.06 0  1.44 0.06 0  1.46 0.06 0  1.48 0.06 0  1.5 0.06 0  1.52 0.06 0  1.54 0.06 0  1.56 0.06 0  1.58 0.06 0  1.6 0.06 0  1.62 0.06 0  1.64 0.06 0  1.66 0.06 0  1.68 0.06 0  1.7 0.06 0  1.72 0.06 0  1.74 0.06 0  1.76 0.06 0  1.78 0.06 0  1.8 0.06 0  1.82 0.06 0  1.84 0.06 0  1.86 0.06 0  1.88 0.06 0  1.9 0.06 0  1.92 0.06 0  1.94 0.06 0  1.96 0.06 0  1.98 0.06 0  2 0.06 0  0 0.08 0  0.02 0.08 0  0.04 0.08 0  0.06 0.08 0  0.08 0.08 0  0.1 0.08 0  0.12 0.08 0  0.14 0.08 0  0.16 0.08 0  0.18 0.08 0  0.2 0.08 0  0.22 0.08 0  0.24 0.08 0  0.26 0.08 0  0.28 0.08 0  0.3 0.08 0  0.32 0.08 0  0.34 0.08 0  0.36 0.08 0  0.38 0.08 0  0.4 0.08 0  0.42 0.08 0  0.44 0.08 0  0.46 0.08 0  0.48 0.08 0  0.5 0.08 0  0.52 0.08 0  0.54 0.08 0  0.5600000000000001 0.08 0  0.58 0.08 0  0.6 0.08 0  0.62 0.08 0  0.64 0.08 0  0.66 0.08 0  0.68 0.08 0  0.7 0.08 0  0.72 0.08 0  0.74 0.08 0  0.76 0.08 0  0.78 0.08 0  0.8 0.08 0  0.82 0.08 0  0.84 0.08 0  0.86 0.08 0  0.88 0.08 0  0.9 0.08 0  0.92 0.08 0  0.9399999999999999 0.08 0  0.96 0.08 0  0.98 0.08 0  1 0.08 0  1.02 0.08 0  1.04 0.08 0  1.06 0.08 0  1.08 0.08 0  1.1 0.08 0  1.12 0.08 0  1.14 0.08 0  1.16 0.08 0  1.18 0.08 0  1.2 0.08 0  1.22 0.08 0  1.24 0.08 0  1.26 0.08 0  1.28 0.08 0  1.3 0.08 0  1.32 0.08 0  1.34 0.08 0  1.36 0.08 0  1.38 0.08 0  1.4 0.08 0  1.42 0.08 0  1.44 0.08 0  1.46 0.08 0  1.48 0.08 0  1.5 0.08 0  1.52 0.08 0  1.54 0.08 0  1.56 0.08 0  1.58 0.08 0  1.6 0.08 0  1.62 0.08 0  1.64 0.08 0  1.66 0.08 0  1.68 0.08 0  1.7 0.08 0  1.72 0.08 0  1.74 0.08 0  1.76 0.08 0  1.78 0.08 0  1.8 0.08 0  1.82 0.08 0  1.84 0.08 0  1.86 0.08 0  1.88 0.08 0  1.9 0.08 0  1.92 0.08 0  1.94 0.08 0  1.96 0.08 0  1.98 0.08 0  2 0.08 0  0 0.1 0  0.02 0.1 0  0.04 0.1 0  0.06 0.1 0  0.08 0.1 0  0.1 0.1 0  0.12 0.1 0  0.14 0.1 0  0.16 0.1 0  0.18 0.1 0  0.2 0.1 0  0.22 0.1 0  0.24 0.1 0  0.26 0.1 0  0.28 0.1 0  0.3 0.1 0  0.32 0.1 0  0.34 0.1 0  0.36 0.1 0  0.38 0.1 0  0.4 0.1 0  0.42 0.1 0  0.44 0.1 0  0.46 0.1 0  0.48 0.1 0  0.5 0.1 0  0.52 0.1 0  0.54 0.1 0  0.5600000000000001 0.1 0  0.58 0.1 0  0.6 0.1 0  0.62 0.1 0  0.64 0.1 0  0.66 0.1 0  0.68 0.1 0  0.7 0.1 0  0.72 0.1 0  0.74 0.1 0  0.76 0.1 0  0.78 0.1 0  0.8 0.1 0  0.82 0.1 0  0.84 0.1 0  0.86 0.1 0  0.88 0.1 0  0.9 0.1 0  0.92 0.1 0  0.9399999999999999 0.1 0  0.96 0.1 0  0.98 0.1 0  1 0.1 0  1.02 0.1 0  1.04 0.1 0  1.06 0.1 0  1.08 0.1 0  1.1 0.1 0  1.12 0.1 0  1.14 0.1 0  1.16 0.1 0  1.18 0.1 0  1.2 0.1 0  1.22 0.1 0  1.24 0.1 0  1.26 0.1 0  1.28 0.1 0  1.3 0.1 0  1.32 0.1 0  1.34 0.1 0  1.36 0.1 0  1.38 0.1 0  1.4 0.1 0  1.42 0.1 0  1.44 0.1 0  1.46 0.1 0  1.48 0.1 0  1.5 0.1 0  1.52 0.1 0  1.54 0.1 0  1.56 0.1 0  1.58 0.1 0  1.6 0.1 0  1.62 0.1 0  1.64 0.1 0  1.66 0.1 0  1.68 0.1 0  1.7 0.1 0  1.72 0.1 0  1.74 0.1 0  1.76 0.1 0  1.78 0.1 0  1.8 0.1 0  1.82 0.1 0  1.84 0.1 0  1.86 0.1 0  1.88 0.1 0  1.9 0.1 0  1.92 0.1 0  1.94 0.1 0  1.96 0.1 0  1.98 0.1 0  2 0.1 0  0 0.12 0  0.02 0.12 0  0.04 0.12 0  0.06 0.12 0  0.08 0.12 0  0.1 0.12 0  0.12 0.12 0  0.14 0.12 0  0.16 0.12 0  0.18 0.12 0  0.2 0.12 0  0.22 0.12 0  0.24 0.12 0  0.26 0.12 0  0.28 0.12 0  0.3 0.12 0  0.32 0.12 0  0.34 0.12 0  0.36 0.12 0  0.38 0.12 0  0.4 0.12 0  0.42 0.12 0  0.44 0.12 0  0.46 0.12 0  0.48 0.12 0  0.5 0.12 0  0.52 0.12 0  0.54 0.12 0  0.5600000000000001 0.12 0  0.58 0.12 0  0.6 0.12 0  0.62 0.12 0  0.64 0.12 0  0.66 0.12 0  0.68 0.12 0  0.7 0.12 0  0.72 0.12 0  0.74 0.12 0  0.76 0.12 0  0.78 0.12 0  0.8 0.12 0  0.82 0.12 0  0.84 0.12 0  0.86 0.12 0  0.88 0.12 0  0.9 0.12 0  0.92 0.12 0  0.9399999999999999 0.12 0  0.96 0.12 0  0.98 0.12 0  1 0.12 0  1.02 0.12 0  1.04 0.12 0  1.06 0.12 0  1.08 0.12 0  1.1 0.12 0  1.12 0.12 0  1.14 0.12 0  1.16 0.12 0  1.18 0.12 0  1.2 0.12 0  1.22 0.12 0  1.24 0.12 0  1.26 0.12 0  1.28 0.12 0  1.3 0.12 0  1.32 0.12 0  1.34 0.12 0  1.36 0.12 0  1.38 0.12 0  1.4 0.12 0  1.42 0.12 0  1.44 0.12 0  1.46 0.12 0  1.48 0.12 0  1.5 0.12 0  1.52 0.12 0  1.54 0.12 0  1.56 0.12 0  1.58 0.12 0  1.6 0.12 0  1.62 0.12 0  1.64 0.12 0  1.66 0.12 0  1.68 0.12 0  1.7 0.12 0  1.72 0.12 0  1.74 0.12 0  1.76 0.12 0  1.78 0.12 0  1.8 0.12 0  1.82 0.12 0  1.84 0.12 0  1.86 0.12 0  1.88 0.12 0  1.9 0.12 0  1.92 0.12 0  1.94 0.12 0  1.96 0.12 0  1.98 0.12 0  2 0.12 0  0 0.14 0  0.02 0.14 0  0.04 0.14 0  0.06 0.14 0  0.08 0.14 0  0.1 0.14 0  0.12 0.14 0  0.14 0.14 0  0.16 0.14 0  0.18 0.14 0  0.2 0.14 0  0.22 0.14 0  0.24 0.14 0  0.26 0.14 0  0.28 0.14 0  0.3 0.14 0  0.32 0.14 0  0.34 0.14 0  0.36 0.14 0  0.38 0.14 0  0.4 0.14 0  0.42 0.14 0  0.44 0.14 0  0.46 0.14 0  0.48 0.14 0  0.5 0.14 0  0.52 0.14 0  0.54 0.14 0  0.5600000000000001 0.14 0  0.58 0.14 0  0.6 0.14 0  0.62 0.14 0  0.64 0.14 0  0.66 0.14 0  0.68 0.14 0  0.7 0.14 0  0.72 0.14 0  0.74 0.14 0  0.76 0.14 0  0.78 0.14 0  0.8 0.14 0  0.82 0.14 0  0.84 0.14 0  0.86 0.14 0  0.88 0.14 0  0.9 0.14 0  0.92 0.14 0  0.9399999999999999 0.14 0  0.96 0.14 0  0.98 0.14 0  1 0.14 0  1.02 0.14 0  1.04 0.14 0  1.06 0.14 0  1.08 0.14 0  1.1 0.14 0  1.12 0.14 0  1.14 0.14 0  1.16 0.14 0  1.18 0.14 0  1.2 0.14 0  1.22 0.14 0  1.24 0.14 0  1.26 0.14 0  1.28 0.14 0  1.3 0.14 0  1.32 0.14 0  1.34 0.14 0  1.36 0.14 0  1.38 0.14 0  1.4 0.14 0  1.42 0.14 0  1.44 0.14 0  1.46 0.14 0  1.48 0.14 0  1
[...]
<PointData  Scalars="sols[i]"> 
<DataArray  type="Float64"  Name="sols[i]"  format="ascii">3.1931802069869164e-01  2.6351252039875933e-01  2.6351757939915327e-01  2.6352790514331131e-01  2.6354597631903653e-01  2.6357619434039997e-01  2.6362397375065971e-01  2.6370261684475749e-01  2.6382007474973823e-01  2.6399464931623323e-01  2.6424445958923831e-01  2.6461109450166714e-01  2.6509361114384394e-01  2.6577413818798767e-01  2.6671780287795421e-01  2.6789910440703762e-01  2.6947276218223398e-01  2.7134730058380480e-01  2.7392241119391919e-01  2.7708138970534402e-01  2.8058542280934184e-01  2.8488799406726634e-01  2.8966178638093260e-01  2.9475738235827303e-01  3.0010325753359451e-01  3.0546241081104564e-01  3.1064027933360111e-01  3.1551097243238141e-01  3.1961893211606091e-01  3.2312780685227177e-01  3.2579474744741554e-01  3.2756541990099020e-01  3.2833436893633744e-01  3.2848403484631900e-01  3.2800920507145759e-01  3.2705391339275813e-01  3.2574506694375993e-01  3.2426413712719826e-01  3.2256141607980754e-01  3.2081494344304662e-01  3.1902917257490621e-01  3.1719895081380128e-01  3.1532469088191217e-01  3.1340650799691455e-01  3.1143339927824060e-01  3.0940773480929229e-01  3.0733095932034471e-01  3.0518802559942854e-01  3.0297543145400818e-01  3.0077459830116721e-01  2.9857540485945894e-01  2.9635586717276208e-01  2.9414270208495952e-01  2.9185037815956733e-01  2.8983334900292795e-01  2.8769040669877172e-01  2.8565821544910575e-01  2.8370882061159658e-01  2.8184716294318701e-01  2.8008649407585029e-01  2.7840663419577533e-01  2.7682789854552664e-01  2.7532555060500136e-01  2.7401246905185667e-01  2.7271652262574531e-01  2.7160194096253354e-01  2.7056661168057272e-01  2.6963488999926233e-01  2.6874954761146502e-01  2.6801995575593995e-01  2.6732605296745515e-01  2.6677494578291205e-01  2.6628181661149869e-01  2.6585422125940300e-01  2.6546942032209597e-01  2.6516296934312983e-01  2.6490163174124631e-01  2.6468804541482421e-01  2.6450521184411563e-01  2.6434598462600267e-01  2.6421702709760198e-01  2.6410147788751376e-01  2.6400519075103462e-01  2.6392276657918973e-01  2.6384926883813858e-01  2.6378913507904794e-01  2.6373277553496055e-01  2.6368581450023187e-01  2.6364370232309342e-01  2.6361024182079634e-01  2.6358272660013404e-01  2.6356108593080674e-01  2.6354448632483923e-01  2.6353212903415901e-01  2.6352317007404097e-01  2.6351693210532218e-01  2.6351258517332432e-01  2.6350963309386055e-01  2.6350777885006943e-01  2.6350681041414525e-01  4.0350431778862306e-01  2.6351222360085003e-01  1.7152059707370254e-01  1.7152614614967690e-01  1.7153725552976015e-01  1.7155710877910926e-01  1.7159054894256720e-01  1.7164464375331323e-01  1.7172933192338802e-01  1.7185804732232210e-01  1.7204847033542026e-01  1.7232309933443776e-01  1.7270981817868036e-01  1.7324264848985799e-01  1.7396106091148061e-01  1.7491107545627718e-01  1.7614320910003847e-01  1.7771252650937033e-01  1.7967180052123025e-01  1.8207801117536065e-01  1.8497215578798895e-01  1.8838579372364642e-01  1.9232572856658686e-01  1.9676484439219155e-01  2.0162877165519932e-01  2.0679918737782738e-01  2.1211680982124081e-01  2.1735858101616623e-01  2.2233737394101016e-01  2.2679175001771534e-01  2.3060321080876614e-01  2.3360037612259843e-01  2.3572652891191698e-01  2.3704338436540040e-01  2.3761370415644076e-01  2.3751265143216890e-01  2.3692770129830659e-01  2.3596056564053236e-01  2.3474179107324433e-01  2.3334912289866414e-01  2.3181331491505180e-01  2.3016074037621850e-01  2.2838421485736865e-01  2.2647986304627510e-01  2.2445625867796437e-01  2.2231968525828064e-01  2.2006284189266048e-01  2.1770173688827599e-01  2.1527721324497695e-01  2.1278530159013620e-01  2.1026813278404183e-01  2.0774288452779588e-01  2.0524189366251744e-01  2.0277651243004746e-01  2.0038224907083443e-01  1.9806169371687332e-01  1.9583634444568510e-01  1.9370779596411247e-01  1.9169982849186207e-01  1.8980183692966637e-01  1.8801931523838866e-01  1.8635577168644185e-01  1.8480825495311068e-01  1.8337185101851655e-01  1.8204641759619358e-01  1.8082705986427669e-01  1.7971221439435767e-01  1.7869733349876749e-01  1.7777923340160107e-01  1.7695331382212026e-01  1.7621619658597146e-01  1.7556259095161242e-01  1.7498750589132467e-01  1.7448653702528238e-01  1.7405296948268759e-01  1.7368085189431548e-01  1.7336378191983293e-01  1.7309490142159659e-01  1.7286742535523156e-01  1.7267514110613136e-01  1.7251205951719373e-01  1.7237265022122841e-01  1.7225239894340857e-01  1.7214745230440937e-01  1.7205488547784256e-01  1.7197245090898067e-01  1.7189866889518407e-01  1.7183257108704758e-01  1.7177363187976039e-01  1.7172158357625664e-01  1.7167631244495590e-01  1.7163771005203954e-01  1.7160559341672404e-01  1.7157962905067395e-01  1.7155930669108460e-01  1.7154396968074662e-01  1.7153285459089987e-01  1.7152515479156089e-01  1.7152009845754543e-01  1.7151702160809409e-01  1.7151543154023913e-01  2.6350689693774604e-01  2.6351630733137454e-01  1.7152489415629210e-01  1.7153319968049743e-01  1.7154954743192830e-01  1.7157792527022453e-01  1.7162404414950116e-01  1.7169564512107444e-01  1.7180295922097474e-01  1.7195924033942594e-01  1.7218128496291119e-01  1.7248985163850369e-01  1.7291008489423357e-01  1.7347150731633815e-01  1.7420789964868424e-01  1.7515748057092148e-01  1.7636066080184398e-01  1.7785924514522580e-01  1.7969578523808657e-01  1.8190663113658057e-01  1.8452041929895210e-01  1.8755146472656187e-01  1.9099554969135754e-01  1.9481647056729665e-01  1.9896011571651273e-01  2.0331028933270559e-01  2.0776254482076961e-01  2.1217300294836067e-01  2.1638217156527340e-01  2.2023830806541950e-01  2.2362193493862575e-01  2.2645081921572574e-01  2.2867682991486921e-01  2.3027168143878488e-01  2.3129797038810404e-01  2.3176931615841162e-01  2.3184052245624032e-01  2.3158082532269725e-01  2.3105944804198505e-01  2.3032575812919429e-01  2.2940882878223504e-01  2.2831008513412304e-01  2.2703451738271951e-01  2.2558112543806802e-01  2.2394102027365304e-01  2.2212918722711955e-01  2.2015673397900293e-01  2.1803884594755504e-01  2.1581083267168397e-01  2.1346730572484943e-01  2.1107003893518786e-01  2.0863867004733228e-01  2.0619832600276977e-01  2.0376944669291128e-01  2.0139041794941906e-01  1.9908031588062630e-01  1.9684647368827532e-01  1.9470472926715116e-01  1.9267065953345086e-01  1.9074304561499153e-01  1.8893128956313504e-01  1.8723202835911582e-01  1.8564944900442437e-01  1.8417859817779791e-01  1.8281538641235620e-01  1.8156088763956318e-01  1.8040773728678910e-01  1.7935360502688874e-01  1.7839453008124884e-01  1.7752682114017151e-01  1.7674593768214258e-01  1.7604882302161878e-01  1.7543024437241733e-01  1.7488604379724032e-01  1.7441091609065373e-01  1.7399942540904551e-01  1.7364555328243936e-01  1.7334305931892560e-01  1.7308547311734829e-01  1.7286637655894474e-01  1.7267960538768068e-01  1.7251962555321335e-01  1.7238141033157195e-01  1.7226101345990794e-01  1.7215514084993438e-01  1.7206127869250612e-01  1.7197761023569436e-01  1.7190285600310223e-01  1.7183615767189730e-01  1.7177693886249135e-01  1.7172482161896552e-01  1.7167952259602404e-01  1.7164077403324612e-01  1.7160828693874489e-01  1.7158171835850683e-01  1.7156064645182198e-01  1.7154457093439832e-01  1.7153289508632000e-01  1.7152494188219186e-01  1.7152001512040113e-01  1.7151749736932514e-01  2.6350823242190186e-01  2.6352329095595800e-01  1.7153280094528017e-01  1.7154584909643525e-01  1.7157045196669235e-01  1.7161139348447182e-01  1.7167534405933835e-01  1.7177089573440738e-01  1.7190885152263238e-01  1.7210254026361035e-01  1.7236811693143272e-01  1.7272466175554071e-01  1.7319445132076244e-01  1.7380250475029604e-01  1.7457626441215177e-01  1.7554439121907203e-01  1.7673606813055578e-01  1.7817990877534934e-01  1.7990104222277176e-01  1.8191754865782400e-01  1.8424320487112344e-01  1.8687476045339926e-01  1.8979519889324897e-01  1.9297184070675044e-01  1.9635982169082650e-01  1.9987101318939299e-01  2.0344218698813771e-01  2.0699314041282801e-01  2.1043380132340578e-01  2.1369342944529929e-01  2.1670305500839046e-01  2.1938431325621988e-01  2.2170211714941079e-01  2.2359860234957549e-01  2.2506458431384824e-01  2.2613169365161809e-01  2.2685112152601200e-01  2.2729028315805513e-01  2.2748708517292132e-01  2.2747302705708106e-01  2.2724399231107029e-01  2.2680360060108251e-01  2.2613584374774212e-01  2.2523326745973074e-01  2.2408867008036087e-01  2.2270807613869503e-01  2.2109495993182998e-01  2.1927792012729588e-01  2.1727901440215627e-01  2.1513041373338032e-01  2.1286404645618207e-01  2.1051201027398397e-01  2.0811245681490309e-01  2.0569838815063024e-01  2.0330050331852792e-01  2.0094296458253552e-01  1.9865049542881305e-01  1.9643981001625027e-01  1.9433137478219642e-01  1.9232353849185790e-01  1.9043157750412543e-01  1.8865479379211231e-01  1.8699567037394346e-01  1.8545005312817614e-01  1.8401742852869010e-01  1.8269232315431000e-01  1.8147131912278885e-01  1.8034822570153999e-01  1.7932079640645038e-01  1.7838389100312949e-01  1.7753435126717218e-01  1.7676809474499408e-01  1.7608214473874292e-01  1.7547195668000859e-01  1.7493400912876930e-01  1.7446361697961832e-01  1.7405570265058765e-01  1.7370429155670589e-01  1.7340311911209572e-01  1.7314569688241258e-01  1.7292551396796227e-01  1.7273653308034648e-01  1.7257330521629285e-01  1.7243127133745237e-01  1.7230669578481056e-01  1.7219660183421759e-01  1.7209870878482672e-01  1.7201131653774657e-01  1.7193312628977023e-01  1.7186319569073719e-01  1.7180082335610344e-01  1.7174551524423023e-01  1.7169691928665709e-01  1.7165479981786971e-01  1.7161898501221295e-01  1.7158932912093022e-01  1.7156562808302095e-01  1.7154755081544770e-01  1.7153460302998186e-01  1.7152617750732196e-01  1.7152169463243019e-01  2.6351097735515683e-01  2.6353464665193621e-01  1.7154538947871720e-01  1.7156523252734179e-01  1.7160083452544719e-01  1.7165755794858181e-01  1.7174289748482674e-01  1.7186638400393109e-01  1.7203957274931173e-01  1.7227620671650479e-01  1.7259221965511312e-01  1.7300558179500011e-01  1.7353628721862202e-01  1.7420530944181850e-01  1.7503478942719555e-01  1.7604439845273184e-01  1.7725298020736133e-01  1.7867526636390998e-01  1.8032199186115652e-01  1.8219448949267775e-01  1.8428766247688849e-01  1.8658432226395688e-01  1.8906481482618040e-01  1.9169194899580994e-01  1.9442648671200846e-01  1.9722756559203905e-01  2.0006703811219984e-01  2.0292748049537451e-01  2.0579226785061386e-01  2.0863710569339405e-01  2.1143128818804988e-01  2.1412035691036257e-01  2.1662580536749093e-01  2.1885621308567479e-01  2.2076455693995525e-01  2.2235466191507305e-01  2.2365111381845959e-01  2.2469421145306995e-01  2.2551677129069897e-01  2.2612959727396897e-01  2.2653008834864927e-01  2.2669884369236445e-01  2.2661247817653860e-01  2.2625115640380400e-01  2.2559782927792221e-01  2.2464927926837283e-01  2.2340746582292786e-01  2.2188965311521291e-01  2.2012517815682586e-01  2.1813608133070203e-01  2.1596701765875831e-01  2.1366015085410356e-01  2.1125065925614864e-01  2.0878229032368348e-01  2.0629618764555221e-01  2.0382396243701800e-01  2.0139681783737517e-01  1.9904165443347557e-01  1.9677756704181290e-01  1.9462176392522754e-01  1.9258258700260594e-01  1.9066496358506629e-01  1.8887036049715689e-01  1.8719941344421051e-01  1.8564711632111766e-01  1.8420938289676486e-01  1.8288041292826712e-01  1.8165443022331168e-01  1.8052629364524828e-01  1.7949145511454831e-01  1.7854554119631152e-01  1.7768567759411841e-01  1.7690850873914868e-01  1.7621148845579310e-01  1.7559173044651685e-01  1.7504552408502630e-01  1.7456855880624278e-01  1.7415557318424049e-01  1.7380022662153999e-01  1.7349568326049389e-01  1.7323484982192389e-01  1.7301086760909393e-01  1.7281756980998531e-01  1.7264957336275366e-01  1.7250247247058145e-01  1.7237268448373780e-01  1.7225736866813901e-01  1.7215428675769373e-01  1.7206167539368067e-01  1.7197816972478472e-01  1.7190277005127863e-01  1.7183476419751667e-01  1.7177372636165852e-01  1.7171946522520964e-01  1.7167198168859482e-01  1.7163136794798056e-01  1.7159770165133281e-01  1.7157092965560838e-01  1.7155080544993226e-01  1.7153696638044091e-01  1.7152914658126175e-01  2.6351581063943463e-01  2.6355184089462247e-01  1.7156376886935637e-01  1.7159213026596423e-01  1.7164093538735203e-01  1.7171575636633180e-01  1.7182476154812007e-01  1.7197837703016816e-01  1.7218909783131525e-01  1.7247139062745509e-01  1.7284145041578911e-01  1.7331695085787299e-01  1.7391643573495869e-01  1.7465804805699447e-01  1.7555930784140120e-01  1.7663335342906358e-01  1.7788969627034390e-01  1.7933145943834178e-01  1.8095580149591292e-01  1.8274896973938237e-01  1.8469204806175032e-01  1.8675589421592198e-01  1.8890911985183403e-01  1.9111604483746916e-01  1.9334957027354419e-01  1.9560091652644132e-01  1.9789313348144752e-01  2.0027124016015055e-01  2.0277549423056423e-01  2.0543869417436217e-01  2.0825565483393604e-01  2.1116934487240940e-01  2.1405061379257487e-01  2.1676079455242109e-01  2.1920126554377378e-01  2.2134092780037345e-01  2.2319937823575919e-01  2.2481204637240357e-01  2.2620198409683015e-01  2.2737563059639243e-01  2.2832062466032726e-01  2.2901238782887262e-01  2.2942222716462568e-01  2.2952117262914506e-01  2.2928404750780879e-01  2.2869886942964279e-01  2.2776260651755248e-01  2.2648556701146563e-01  2.2488710522925132e-01  2.2299695255428933e-01  2.2085855441735291e-01  2.1851360921774896e-01  2.1600990835559070e-01  2.1339783058234732e-01  2.1072408433771139e-01  2.0803391104136656e-01  2.0536602141718974e-01  2.0275804705324307e-01  2.0023847898875868e-01  1.9782865738557415e-01  1.9554483074189594e-01  1.9339576603975409e-01  1.9138503026506598e-01  1.8951262286098558e-01  1.8777505601574532e-01  1.8616530344021395e-01  1.8467629636177069e-01  1.8330064920551598e-01  1.8203135045825938e-01  1.8086196156321585e-01  1.7978763002610695e-01  1.7880491026124579e-01  1.7791096728014563e-01  1.7710371274737688e-01  1.7638133556073676e-01  1.7574126369984489e-01  1.7517993855782413e-01  1.7469244793018510e-01  1.7427238588609556e-01  1.7391230954039899e-01  1.7360406460878927e-01  1.7333965986974631e-01  1.7311174250699446e-01  1.7291391911961473e-01  1.7274087425651335e-01  1.7258831573354255e-01  1.7245270749953917e-01  1.7233122835555997e-01  1.7222159222878547e-01  1.7212200318002782e-01  1.7203114304373840e-01  1.7194811104515603e-01  1.7187239869044688e-01  1.7180385432689110e-01  1.7174259599827335e-01  1.7168890707063394e-01  1.7164309907941647e-01  1.7160537542518303e-01  1.7157579320355501e-01  1.7155440290633900e-01  1.7154159195833990e-01  2.6352383344317043e-01  2.6357762541589030e-01  1.7158896517273473e-01  1.7162681865546042e-01  1.7169010519360620e-01  1.7178428838268198e-01  1.7191803665906286e-01  1.7210264176780571e-01  1.7235159662325109e-01  1.7268038227221402e-01  1.7310593992283008e-01  1.7364634597033490e-01  1.7431955666641025e-01  1.7514255785165422e-01  1.7612928301155847e-01  1.7728895143620158e-01  1.7862294186303546e-01  1.8012551197366364e-01  1.8178136301998588e-01  1.8356580168761372e-01  1.8544246607843440e-01  1.8737443660139472e-01  1.8931825327227078e-01  1.9123776949727986e-01  1.9311320004813973e-01  1.9496542238682624e-01  1.9687545355256941e-01  1.9897066734098598e-01  2.0135586794245672e-01  2.0410501167008746e-01  2.0725361044298446e-01  2.1072283167332037e-01  2.1429960233397863e-01  2.1775290078587575e-01  2.2092319624571985e-01  2.2376501909684399e-01  2.2630205047663896e-01  2.2857041705249762e-01  2.3057969528650768e-01  2.3232657212709715e-01  2.3379080729027119e-01  2.3494467797788568e-01  2.3576068724435545e-01  2.3620957464948678e-01  2.3626954378356305e-01  2.3592364948049008e-01  2.3516421333354443e-01  2.3399945214396201e-01  2.3244541027115689e-01  2.3053155106542744e-01  2.2829609330812384e-01  2.2578541822612119e-01  2.2305367316064592e-01  2.2015688552744259e-01  2.1715049237391404e-01  2.1409205763760497e-01  2.1103308949288799e-01  2.0802040633875268e-01  2.0509320351529003e-01  2.0228408909293671e-01  1.9961633764071690e-01  1.9710375212098033e-01  1.9475565996743485e-01  1.9257287568082573e-01  1.9055205720931725e-01  1.8868404897590868e-01  1.8696029027723499e-01  1.8537019216457779e-01  1.8390300719685207e-01  1.8255070579222510e-01  1.8130549993399794e-01  1.8016260501089376e-01  1.7911880242976291e-01  1.7817222866340379e-01  1.7732165516720133e-01  1.7656552255751329e-01  1.7590103846067170e-01  1.7532360612820305e-01  1.7482644980163575e-01  1.7440099588363922e-01  1.7403762141031742e-01  1.7372658923609766e-01  1.7345888417684857e-01  1.7322679250061118e-01  1.7302392623509863e-01  1.7284511117693102e-01  1.7268610390392086e-01  1.7254338124780802e-01  1.7241408025762306e-01  1.7229593774079566e-01  1.7218731288389869e-01  1.7208709022068414e-01  1.7199467689328182e-01  1.7190991602535277e-01  1.7183298923155158e-01  1.7176429250989114e-01  1.7170430552547400e-01  1.7165346060212958e-01  1.7161216085461550e-01  1.7158103026350568e-01  1.7156146168695580e-01  2.6353708374599766e-01  2.6361185648687863e-01  1.7162170474942551e-01  1.7166901993709532e-01  1.7174688514504199e-01  1.7186049406001416e-01  1.7201890849309692e-01  1.7223415631966849e-01  1.7252083127708498e-01  1.7289555110585650e-01  1.7337655606055713e-01  1.7398279054066051e-01  1.7473273317907159e-01  1.7564380140942934e-01  1.7672724228896247e-01  1.7798996561601030e-01  1.7942881866582247e-01  1.8102919088741468e-01  1.8276654385486368e-01  1.8460397441130938e-01  1.8649466837628201e-01  1.8838636311845269e-01  1.9022675177580248e-01  1.9197096347551088e-01  1.9360266506818330e-01  1.9517718036510173e-01  1.9685674013011897e-01  1.9887729853096170e-01  2.0142401422655243e-01  2.0462065878851743e-01  2.0856629489259118e-01  2.1313022570143617e-01  2.1793725655356741e-01  2.2257342342849379e-01  2.2681344984335622e-01  2.3062608611279417e-01  2.3408765928240310e-01  2.3723680434973060e-01  2.4005554416934910e-01  2.4250843353257015e-01  2.4455486092147816e-01  2.4616246426383637e-01  2.4731212319028739e-01  2.4799057952618872e-01  2.4818796915607688e-01  2.4789783550349453e-01  2.4712274601195891e-01  2.4587112757050622e-01  2.4415700478387881e-01  2.4201142106041315e-01  2.3947499142406459e-01  2.3659529369758731e-01  2.3342514792267041e-01  2.3003155337866987e-01  2.2647688571101943e-01  2.2283011289769500e-01  2.1915781227043163e-01  2.1551656677766917e-01  2.1196220806695185e-01  2.0853764303363143e-01  2.0527932096676382e-01  2.0221086811150710e-01  1.9934571486284322e-01  1.9668902765329851e-01  1.9423745552747915e-01  1.9198338711192370e-01  1.8991306603314775e-01  1.8801198480962342e-01  1.8626550116710133e-01  1.8466000880997513e-01  1.8318373914329400e-01  1.8182883123851357e-01  1.8059005024477567e-01  1.7946462093942556e-01  1.7845144630713417e-01  1.7754964213787111e-01  1.7675706743226097e-01  1.7606929898960211e-01  1.7547882643602597e-01  1.7497541933241523e-01  1.7454698470134292e-01  1.7418122971397276e-01  1.7386693094175884e-01  1.7359459417251158e-01  1.7335664546611762e-01  1.7314699464139024e-01  1.7296057181837635e-01  1.7279311404042802e-01  1.7264105971804120e-01  1.7250163695597012e-01  1.7237279814539147e-01  1.7225319569810429e-01  1.7214210964032584e-01  1.7203931936454714e-01  1.7194498918036694e-01  1.7185955586976981e-01  1.7178358111663528e-01  1.7171769233715534e-01  1.7166266991307977e-01  1.7161984013473017e-01  1.7159191152385203e-01  2.6355797307102780e-01  2.6365275339248462e-01  1.7166236011576821e-01  1.7171803752996304e-01  1.7180931679400047e-01  1.7194123368108677e-01  1.7212309944813600e-01  1.7236763391540447e-01  1.7269044880285145e-01  1.7310944822192975e-01  1.7364446356367746e-01  1.7431580014132203e-01  1.7514383596109565e-01  1.7614606314614953e-01  1.7733480619423858e-01  1.7871489993410486e-01  1.8027967736679196e-01  1.8200990638978654e-01  1.8387093704673049e-01  1.8581303308142344e-01  1.8777773872711540e-01  1.8970239470586728e-01  1.91518845958