<?xml version="1.0"?>
<VTKFile type="UnstructuredGrid"  version="0.1"  >
<UnstructuredGrid>
<Piece  NumberOfPoints="5151" NumberOfCells="10000">
<Points>
<DataArray  type="Float64"  NumberOfComponents="3"  format="ascii">0 0 0  0.02 0 0  0.04 0 0  0.06 0 0  0.08 0 0  0.1 0 0  0.12 0 0  0.14 0 0  0.16 0 0  0.18 0 0  0.2 0 0  0.22 0 0  0.24 0 0  0.26 0 0  0.28 0 0  0.3 0 0  0.32 0 0  0.34 0 0  0.36 0 0  0.38 0 0  0.4 0 0  0.42 0 0  0.44 0 0  0.46 0 0  0.48 0 0  0.5 0 0  0.52 0 0  0.54 0 0  0.5600000000000001 0 0  0.58 0 0  0.6 0 0  0.62 0 0  0.64 0 0  0.66 0 0  0.68 0 0  0.7 0 0  0.72 0 0  0.74 0 0  0.76 0 0  0.78 0 0  0.8 0 0  0.82 0 0  0.84 0 0  0.86 0 0  0.88 0 0  0.9 0 0  0.92 0 0  0.9399999999999999 0 0  0.96 0 0  0.98 0 0  1 0 0  1.02 0 0  1.04 0 0  1.06 0 0  1.08 0 0  1.1 0 0  1.12 0 0  1.14 0 0  1.16 0 0  1.18 0 0  1.2 0 0  1.22 0 0  1.24 0 0  1.26 0 0  1.28 0 0  1.3 0 0  1.32 0 0  1.34 0 0  1.36 0 0  1.38 0 0  1.4 0 0  1.42 0 0  1.44 0 0  1.46 0 0  1.48 0 0  1.5 0 0  1.52 0 0  1.54 0 0  1.56 0 0  1.58 0 0  1.6 0 0  1.62 0 0  1.64 0 0  1.66 0 0  1.68 0 0  1.7 0 0  1.72 0 0  1.74 0 0  1.76 0 0  1.78 0 0  1.8 0 0  1.82 0 0  1.84 0 0  1.86 0 0  1.88 0 0  1.9 0 0  1.92 0 0  1.94 0 0  1.96 0 0  1.98 0 0  2 0 0  0 0.02 0  0.02 0.02 0  0.04 0.02 0  0.06 0.02 0  0.08 0.02 0  0.1 0.02 0  0.12 0.02 0  0.14 0.02 0  0.16 0.02 0  0.18 0.02 0  0.2 0.02 0  0.22 0.02 0  0.24 0.02 0  0.26 0.02 0  0.28 0.02 0  0.3 0.02 0  0.32 0.02 0  0.34 0.02 0  0.36 0.02 0  0.38 0.02 0  0.4 0.02 0  0.42 0.02 0  0.44 0.02 0  0.46 0.02 0  0.48 0.02 0  0.5 0.02 0  0.52 0.02 0  0.54 0.02 0  0.5600000000000001 0.02 0  0.58 0.02 0  0.6 0.02 0  0.62 0.02 0  0.64 0.02 0  0.66 0.02 0  0.68 0.02 0  0.7 0.02 0  0.72 0.02 0  0.74 0.02 0  0.76 0.02 0  0.78 0.02 0  0.8 0.02 0  0.82 0.02 0  0.84 0.02 0  0.86 0.02 0  0.88 0.02 0  0.9 0.02 0  0.92 0.02 0  0.9399999999999999 0.02 0  0.96 0.02 0  0.98 0.02 0  1 0.02 0  1.02 0.02 0  1.04 0.02 0  1.06 0.02 0  1.08 0.02 0  1.1 0.02 0  1.12 0.02 0  1.14 0.02 0  1.16 0.02 0  1.18 0.02 0  1.2 0.02 0  1.22 0.02 0  1.24 0.02 0  1.26 0.02 0  1.28 0.02 0  1.3 0.02 0  1.32 0.02 0  1.34 0.02 0  1.36 0.02 0  1.38 0.02 0  1.4 0.02 0  1.42 0.02 0  1.44 0.02 0  1.46 0.02 0  1.48 0.02 0  1.5 0.02 0  1.52 0.02 0  1.54 0.02 0  1.56 0.02 0  1.58 0.02 0  1.6 0.02 0  1.62 0.02 0  1.64 0.02 0  1.66 0.02 0  1.68 0.02 0  1.7 0.02 0  1.72 0.02 0  1.74 0.02 0  1.76 0.02 0  1.78 0.02 0  1.8 0.02 0  1.82 0.02 0  1.84 0.02 0  1.86 0.02 0  1.88 0.02 0  1.9 0.02 0  1.92 0.02 0  1.94 0.02 0  1.96 0.02 0  1.98 0.02 0  2 0.02 0  0 0.04 0  0.02 0.04 0  0.04 0.04 0  0.06 0.04 0  0.08 0.04 0  0.1 0.04 0  0.12 0.04 0  0.14 0.04 0  0.16 0.04 0  0.18 0.04 0  0.2 0.04 0  0.22 0.04 0  0.24 0.04 0  0.26 0.04 0  0.28 0.04 0  0.3 0.04 0  0.32 0.04 0  0.34 0.04 0  0.36 0.04 0  0.38 0.04 0  0.4 0.04 0  0.42 0.04 0  0.44 0.04 0  0.46 0.04 0  0.48 0.04 0  0.5 0.04 0  0.52 0.04 0  0.54 0.04 0  0.5600000000000001 0.04 0  0.58 0.04 0  0.6 0.04 0  0.62 0.04 0  0.64 0.04 0  0.66 0.04 0  0.68 0.04 0  0.7 0.04 0  0.72 0.04 0  0.74 0.04 0  0.76 0.04 0  0.78 0.04 0  0.8 0.04 0  0.82 0.04 0  0.84 0.04 0  0.86 0.04 0  0.88 0.04 0  0.9 0.04 0  0.92 0.04 0  0.9399999999999999 0.04 0  0.96 0.04 0  0.98 0.04 0  1 0.04 0  1.02 0.04 0  1.04 0.04 0  1.06 0.04 0  1.08 0.04 0  1.1 0.04 0  1.12 0.04 0  1.14 0.04 0  1.16 0.04 0  1.18 0.04 0  1.2 0.04 0  1.22 0.04 0  1.24 0.04 0  1.26 0.04 0  1.28 0.04 0  1.3 0.04 0  1.32 0.04 0  1.34 0.04 0  1.36 0.04 0  1.38 0.04 0  1.4 0.04 0  1.42 0.04 0  1.44 0.04 0  1.46 0.04 0  1.48 0.04 0  1.5 0.04 0  1.52 0.04 0  1.54 0.04 0  1.56 0.04 0  1.58 0.04 0  1.6 0.04 0  1.62 0.04 0  1.64 0.04 0  1.66 0.04 0  1.68 0.04 0  1.7 0.04 0  1.72 0.04 0  1.74 0.04 0  1.76 0.04 0  1.78 0.04 0  1.8 0.04 0  1.82 0.04 0  1.84 0.04 0  1.86 0.04 0  1.88 0.04 0  1.9 0.04 0  1.92 0.04 0  1.94 0.04 0  1.96 0.04 0  1.98 0.04 0  2 0.04 0  0 0.06 0  0.02 0.06 0  0.04 0.06 0  0.06 0.06 0  0.08 0.06 0  0.1 0.06 0  0.12 0.06 0  0.14 0.06 0  0.16 0.06 0  0.18 0.06 0  0.2 0.06 0  0.22 0.06 0  0.24 0.06 0  0.26 0.06 0  0.28 0.06 0  0.3 0.06 0  0.32 0.06 0  0.34 0.06 0  0.36 0.06 0  0.38 0.06 0  0.4 0.06 0  0.42 0.06 0  0.44 0.06 0  0.46 0.06 0  0.48 0.06 0  0.5 0.06 0  0.52 0.06 0  0.54 0.06 0  0.5600000000000001 0.06 0  0.58 0.06 0  0.6 0.06 0  0.62 0.06 0  0.64 0.06 0  0.66 0.06 0  0.68 0.06 0  0.7 0.06 0  0.72 0.06 0  0.74 0.06 0  0.76 0.06 0  0.78 0.06 0  0.8 0.06 0  0.82 0.06 0  0.84 0.06 0  0.86 0.06 0  0.88 0.06 0  0.9 0.06 0  0.92 0.06 0  0.9399999999999999 0.06 0  0.96 0.06 0  0.98 0.06 0  1 0.06 0  1.02 0.06 0  1.04 0.06 0  1.06 0.06 0  1.08 0.06 0  1.1 0.06 0  1.12 0.06 0  1.14 0.06 0  1.16 0.06 0  1.18 0.06 0  1.2 0.06 0  1.22 0.06 0  1.24 0.06 0  1.26 0.06 0  1.28 0.06 0  1.3 0.06 0  1.32 0.06 0  1.34 0.06 0  1.36 0.06 0  1.38 0.06 0  1.4 0.06 0  1.42 0.06 0  1.44 0.06 0  1.46 0.06 0  1.48 0.06 0  1.5 0.06 0  1.52 0.06 0  1.54 0.06 0  1.56 0.06 0  1.58 0.06 0  1.6 0.06 0  1.62 0.06 0  1.64 0.06 0  1.66 0.06 0  1.68 0.06 0  1.7 0.06 0  1.72 0.06 0  1.74 0.06 0  1.76 0.06 0  1.78 0.06 0  1.8 0.06 0  1.82 0.06 0  1.84 0.06 0  1.86 0.06 0  1.88 0.06 0  1.9 0.06 0  1.92 0.06 0  1.94 0.06 0  1.96 0.06 0  1.98 0.06 0  2 0.06 0  0 0.08 0  0.02 0.08 0  0.04 0.08 0  0.06 0.08 0  0.08 0.08 0  0.1 0.08 0  0.12 0.08 0  0.14 0.08 0  0.16 0.08 0  0.18 0.08 0  0.2 0.08 0  0.22 0.08 0  0.24 0.08 0  0.26 0.08 0  0.28 0.08 0  0.3 0.08 0  0.32 0.08 0  0.34 0.08 0  0.36 0.08 0  0.38 0.08 0  0.4 0.08 0  0.42 0.08 0  0.44 0.08 0  0.46 0.08 0  0.48 0.08 0  0.5 0.08 0  0.52 0.08 0  0.54 0.08 0  0.5600000000000001 0.08 0  0.58 0.08 0  0.6 0.08 0  0.62 0.08 0  0.64 0.08 0  0.66 0.08 0  0.68 0.08 0  0.7 0.08 0  0.72 0.08 0  0.74 0.08 0  0.76 0.08 0  0.78 0.08 0  0.8 0.08 0  0.82 0.08 0  0.84 0.08 0  0.86 0.08 0  0.88 0.08 0  0.9 0.08 0  0.92 0.08 0  0.9399999999999999 0.08 0  0.96 0.08 0  0.98 0.08 0  1 0.08 0  1.02 0.08 0  1.04 0.08 0  1.06 0.08 0  1.08 0.08 0  1.1 0.08 0  1.12 0.08 0  1.14 0.08 0  1.16 0.08 0  1.18 0.08 0  1.2 0.08 0  1.22 0.08 0  1.24 0.08 0  1.26 0.08 0  1.28 0.08 0  1.3 0.08 0  1.32 0.08 0  1.34 0.08 0  1.36 0.08 0  1.38 0.08 0  1.4 0.08 0  1.42 0.08 0  1.44 0.08 0  1.46 0.08 0  1.48 0.08 0  1.5 0.08 0  1.52 0.08 0  1.54 0.08 0  1.56 0.08 0  1.58 0.08 0  1.6 0.08 0  1.62 0.08 0  1.64 0.08 0  1.66 0.08 0  1.68 0.08 0  1.7 0.08 0  1.72 0.08 0  1.74 0.08 0  1.76 0.08 0  1.78 0.08 0  1.8 0.08 0  1.82 0.08 0  1.84 0.08 0  1.86 0.08 0  1.88 0.08 0  1.9 0.08 0  1.92 0.08 0  1.94 0.08 0  1.96 0.08 0  1.98 0.08 0  2 0.08 0  0 0.1 0  0.02 0.1 0  0.04 0.1 0  0.06 0.1 0  0.08 0.1 0  0.1 0.1 0  0.12 0.1 0  0.14 0.1 0  0.16 0.1 0  0.18 0.1 0  0.2 0.1 0  0.22 0.1 0  0.24 0.1 0  0.26 0.1 0  0.28 0.1 0  0.3 0.1 0  0.32 0.1 0  0.34 0.1 0  0.36 0.1 0  0.38 0.1 0  0.4 0.1 0  0.42 0.1 0  0.44 0.1 0  0.46 0.1 0  0.48 0.1 0  0.5 0.1 0  0.52 0.1 0  0.54 0.1 0  0.5600000000000001 0.1 0  0.58 0.1 0  0.6 0.1 0  0.62 0.1 0  0.64 0.1 0  0.66 0.1 0  0.68 0.1 0  0.7 0.1 0  0.72 0.1 0  0.74 0.1 0  0.76 0.1 0  0.78 0.1 0  0.8 0.1 0  0.82 0.1 0  0.84 0.1 0  0.86 0.1 0  0.88 0.1 0  0.9 0.1 0  0.92 0.1 0  0.9399999999999999 0.1 0  0.96 0.1 0  0.98 0.1 0  1 0.1 0  1.02 0.1 0  1.04 0.1 0  1.06 0.1 0  1.08 0.1 0  1.1 0.1 0  1.12 0.1 0  1.14 0.1 0  1.16 0.1 0  1.18 0.1 0  1.2 0.1 0  1.22 0.1 0  1.24 0.1 0  1.26 0.1 0  1.28 0.1 0  1.3 0.1 0  1.32 0.1 0  1.34 0.1 0  1.36 0.1 0  1.38 0.1 0  1.4 0.1 0  1.42 0.1 0  1.44 0.1 0  1.46 0.1 0  1.48 0.1 0  1.5 0.1 0  1.52 0.1 0  1.54 0.1 0  1.56 0.1 0  1.58 0.1 0  1.6 0.1 0  1.62 0.1 0  1.64 0.1 0  1.66 0.1 0  1.68 0.1 0  1.7 0.1 0  1.72 0.1 0  1.74 0.1 0  1.76 0.1 0  1.78 0.1 0  1.8 0.1 0  1.82 0.1 0  1.84 0.1 0  1.86 0.1 0  1.88 0.1 0  1.9 0.1 0  1.92 0.1 0  1.94 0.1 0  1.96 0.1 0  1.98 0.1 0  2 0.1 0  0 0.12 0  0.02 0.12 0  0.04 0.12 0  0.06 0.12 0  0.08 0.12 0  0.1 0.12 0  0.12 0.12 0  0.14 0.12 0  0.16 0.12 0  0.18 0.12 0  0.2 0.12 0  0.22 0.12 0  0.24 0.12 0  0.26 0.12 0  0.28 0.12 0  0.3 0.12 0  0.32 0.12 0  0.34 0.12 0  0.36 0.12 0  0.38 0.12 0  0.4 0.12 0  0.42 0.12 0  0.44 0.12 0  0.46 0.12 0  0.48 0.12 0  0.5 0.12 0  0.52 0.12 0  0.54 0.12 0  0.5600000000000001 0.12 0  0.58 0.12 0  0.6 0.12 0  0.62 0.12 0  0.64 0.12 0  0.66 0.12 0  0.68 0.12 0  0.7 0.12 0  0.72 0.12 0  0.74 0.12 0  0.76 0.12 0  0.78 0.12 0  0.8 0.12 0  0.82 0.12 0  0.84 0.12 0  0.86 0.12 0  0.88 0.12 0  0.9 0.12 0  0.92 0.12 0  0.9399999999999999 0.12 0  0.96 0.12 0  0.98 0.12 0  1 0.12 0  1.02 0.12 0  1.04 0.12 0  1.06 0.12 0  1.08 0.12 0  1.1 0.12 0  1.12 0.12 0  1.14 0.12 0  1.16 0.12 0  1.18 0.12 0  1.2 0.12 0  1.22 0.12 0  1.24 0.12 0  1.26 0.12 0  1.28 0.12 0  1.3 0.12 0  1.32 0.12 0  1.34 0.12 0  1.36 0.12 0  1.38 0.12 0  1.4 0.12 0  1.42 0.12 0  1.44 0.12 0  1.46 0.12 0  1.48 0.12 0  1.5 0.12 0  1.52 0.12 0  1.54 0.12 0  1.56 0.12 0  1.58 0.12 0  1.6 0.12 0  1.62 0.12 0  1.64 0.12 0  1.66 0.12 0  1.68 0.12 0  1.7 0.12 0  1.72 0.12 0  1.74 0.12 0  1.76 0.12 0  1.78 0.12 0  1.8 0.12 0  1.82 0.12 0  1.84 0.12 0  1.86 0.12 0  1.88 0.12 0  1.9 0.12 0  1.92 0.12 0  1.94 0.12 0  1.96 0.12 0  1.98 0.12 0  2 0.12 0  0 0.14 0  0.02 0.14 0  0.04 0.14 0  0.06 0.14 0  0.08 0.14 0  0.1 0.14 0  0.12 0.14 0  0.14 0.14 0  0.16 0.14 0  0.18 0.14 0  0.2 0.14 0  0.22 0.14 0  0.24 0.14 0  0.26 0.14 0  0.28 0.14 0  0.3 0.14 0  0.32 0.14 0  0.34 0.14 0  0.36 0.14 0  0.38 0.14 0  0.4 0.14 0  0.42 0.14 0  0.44 0.14 0  0.46 0.14 0  0.48 0.14 0  0.5 0.14 0  0.52 0.14 0  0.54 0.14 0  0.5600000000000001 0.14 0  0.58 0.14 0  0.6 0.14 0  0.62 0.14 0  0.64 0.14 0  0.66 0.14 0  0.68 0.14 0  0.7 0.14 0  0.72 0.14 0  0.74 0.14 0  0.76 0.14 0  0.78 0.14 0  0.8 0.14 0  0.82 0.14 0  0.84 0.14 0  0.86 0.14 0  0.88 0.14 0  0.9 0.14 0  0.92 0.14 0  0.9399999999999999 0.14 0  0.96 0.14 0  0.98 0.14 0  1 0.14 0  1.02 0.14 0  1.04 0.14 0  1.06 0.14 0  1.08 0.14 0  1.1 0.14 0  1.12 0.14 0  1.14 0.14 0  1.16 0.14 0  1.18 0.14 0  1.2 0.14 0  1.22 0.14 0  1.24 0.14 0  1.26 0.14 0  1.28 0.14 0  1.3 0.14 0  1.32 0.14 0  1.34 0.14 0  1.36 0.14 0  1.38 0.14 0  1.4 0.14 0  1.42 0.14 0  1.44 0.14 0  1.46 0.14 0  1.48 0.14 0  1
[...]
<PointData  Scalars="sols[i]"> 
<DataArray  type="Float64"  Name="sols[i]"  format="ascii">2.0322679931622545e-01  1.4750406121840420e-01  1.4750471899592080e-01  1.4750596966151774e-01  1.4750812477658670e-01  1.4751164636679193e-01  1.4751716019414071e-01  1.4752547324591619e-01  1.4753752075754201e-01  1.4755439450914434e-01  1.4757729381693790e-01  1.4760757882339137e-01  1.4764656422135009e-01  1.4769587862168931e-01  1.4775716913289086e-01  1.4783189938631452e-01  1.4792214905872653e-01  1.4802941548138232e-01  1.4815671743560832e-01  1.4830571944025009e-01  1.4847779658492688e-01  1.4867606138675249e-01  1.4890095131814807e-01  1.4915235383168637e-01  1.4942865993714985e-01  1.4972546041750523e-01  1.5003565189347903e-01  1.5034953657197581e-01  1.5065467146742884e-01  1.5093959458311698e-01  1.5119238322176942e-01  1.5140289048585379e-01  1.5156298052365422e-01  1.5166834304897289e-01  1.5171656865836780e-01  1.5170826014299613e-01  1.5164641532470216e-01  1.5153636832498429e-01  1.5138486590654623e-01  1.5120072241474813e-01  1.5099321808056393e-01  1.5077166281572313e-01  1.5054464153000391e-01  1.5031938687305918e-01  1.5010140879375100e-01  1.4989449145586467e-01  1.4970081995725365e-01  1.4952123733810235e-01  1.4935565930614597e-01  1.4920358811999346e-01  1.4906392960229464e-01  1.4893539469132319e-01  1.4881680400078764e-01  1.4870675282602294e-01  1.4860513615429008e-01  1.4850995180347262e-01  1.4842106438277358e-01  1.4833776752288966e-01  1.4825957181801228e-01  1.4818612523200647e-01  1.4811708149613093e-01  1.4805229237056247e-01  1.4799155083803736e-01  1.4793509403834257e-01  1.4788238208706081e-01  1.4783385982098859e-01  1.4778921806158746e-01  1.4774850763042177e-01  1.4771153054441913e-01  1.4767854983637113e-01  1.4764913308189243e-01  1.4762347420382274e-01  1.4760117232531714e-01  1.4758206033178572e-01  1.4756585089136712e-01  1.4755240129365438e-01  1.4754134869320276e-01  1.4753242567066305e-01  1.4752530711306747e-01  1.4751970599335246e-01  1.4751539304195568e-01  1.4751209287915035e-01  1.4750962357337352e-01  1.4750779809611744e-01  1.4750645834569587e-01  1.4750549973437999e-01  1.4750479986983975e-01  1.4750430189525063e-01  1.4750393679566143e-01  1.4750367508999382e-01  1.4750348026343055e-01  1.4750333313966191e-01  1.4750321953063650e-01  1.4750313053480874e-01  1.4750306055026566e-01  1.4750300645784528e-01  1.4750296555292330e-01  1.4750293619600699e-01  1.4750291704329357e-01  1.4750290686538287e-01  3.1271178974963215e-01  1.4750404516453841e-01  8.0357352266729715e-02  8.0357704152344542e-02  8.0358380275709157e-02  8.0359525462550638e-02  8.0361343777376443e-02  8.0364107151447373e-02  8.0368158754785729e-02  8.0373910823894695e-02  8.0381840000835036e-02  8.0392480737667041e-02  8.0406418910117849e-02  8.0424287587938417e-02  8.0446758278625463e-02  8.0474544521299388e-02  8.0508395676850059e-02  8.0549107800251873e-02  8.0597506883514872e-02  8.0654500218084416e-02  8.0720988672717639e-02  8.0797898623150233e-02  8.0886079627753751e-02  8.0986182824918346e-02  8.1098464310163126e-02  8.1222618361465312e-02  8.1357556257260988e-02  8.1501093653692333e-02  8.1650199257761749e-02  8.1800614082236142e-02  8.1947785511274157e-02  8.2086203630690469e-02  8.2210069186845064e-02  8.2313747276609672e-02  8.2392120042810768e-02  8.2441297022651655e-02  8.2459361487107433e-02  8.2446127629986335e-02  8.2403470044211849e-02  8.2334945596506795e-02  8.2245434918279570e-02  8.2140671347816482e-02  8.2026495943366751e-02  8.1908317494845007e-02  8.1790675938680030e-02  8.1676973357223487e-02  8.1569425430796066e-02  8.1469282621808969e-02  8.1377053383209011e-02  8.1292566782689687e-02  8.1215410110785147e-02  8.1144916775741718e-02  8.1080390857283011e-02  8.1021091542159487e-02  8.0966408923710459e-02  8.0915723561432118e-02  8.0868563321437936e-02  8.0824489136137503e-02  8.0783223546741584e-02  8.0744456571808162e-02  8.0707998609398299e-02  8.0673712670966236e-02  8.0641487400340023e-02  8.0611241971413880e-02  8.0582941634755156e-02  8.0556553984282783e-02  8.0532071614629955e-02  8.0509481623199597e-02  8.0488776208795271e-02  8.0469937327605906e-02  8.0452942990410656e-02  8.0437751335900046e-02  8.0424307139516552e-02  8.0412542029522471e-02  8.0402362451181222e-02  8.0393663312037428e-02  8.0386324800963666e-02  8.0380214881442535e-02  8.0375194834583386e-02  8.0371125253537068e-02  8.0367868431909406e-02  8.0365292989589471e-02  8.0363279339488017e-02  8.0361720218186827e-02  8.0360523067310174e-02  8.0359609272234123e-02  8.0358914346050830e-02  8.0358386143402863e-02  8.0357983707588343e-02  8.0357675476362106e-02  8.0357437813732502e-02  8.0357253322861949e-02  8.0357109481597411e-02  8.0356997312490117e-02  8.0356910313869837e-02  8.0356843705625472e-02  8.0356793795956727e-02  8.0356757567815837e-02  8.0356732469259104e-02  8.0356716343361154e-02  8.0356707530342603e-02  1.4750290678617714e-01  1.4750464991739648e-01  8.0357679223337294e-02  8.0358186843056442e-02  8.0359117216365239e-02  8.0360610055630735e-02  8.0362843967121525e-02  8.0366036890933745e-02  8.0370450383181496e-02  8.0376392645841649e-02  8.0384218606652569e-02  8.0394327269954255e-02  8.0407158056451156e-02  8.0423185353352314e-02  8.0442914115934613e-02  8.0466880007553754e-02  8.0495642448544028e-02  8.0529790608787344e-02  8.0569956805444931e-02  8.0616804429330252e-02  8.0671044327392902e-02  8.0733424874380677e-02  8.0804730381725892e-02  8.0885725354001042e-02  8.0977212026284037e-02  8.1079814286447505e-02  8.1194258187140003e-02  8.1321015572901403e-02  8.1460143400329907e-02  8.1610955890246084e-02  8.1771377671163201e-02  8.1936795957709474e-02  8.2099545294511134e-02  8.2249614423811609e-02  8.2376409319476540e-02  8.2470207087881692e-02  8.2524332038838660e-02  8.2535495182235130e-02  8.2504326387947288e-02  8.2435041950559437e-02  8.2334712291435352e-02  8.2212111143095387e-02  8.2076438383695591e-02  8.1936068941021428e-02  8.1797711629861422e-02  8.1666133483754622e-02  8.1544170649597167e-02  8.1433093910440998e-02  8.1333087444516033e-02  8.1243506785748820e-02  8.1163487168584805e-02  8.1091900334189351e-02  8.1027625726644043e-02  8.0969611098069869e-02  8.0916982320696815e-02  8.0868952099838895e-02  8.0824833896148598e-02  8.0784094554275002e-02  8.0746317389502206e-02  8.0711131062085870e-02  8.0678283615996008e-02  8.0647550757655687e-02  8.0618792320580349e-02  8.0591882064395146e-02  8.0566731927390098e-02  8.0543299425853629e-02  8.0521528775862480e-02  8.0501394362003653e-02  8.0482869952189645e-02  8.0465931265088164e-02  8.0450547787708174e-02  8.0436688986334631e-02  8.0424307397538419e-02  8.0413350407853051e-02  8.0403750643091937e-02  8.0395430194682885e-02  8.0388299325654167e-02  8.0382259018022179e-02  8.0377202517899385e-02  8.0373018691363138e-02  8.0369595481802919e-02  8.0366824348593435e-02  8.0364602342712074e-02  8.0362836798985357e-02  8.0361444868363482e-02  8.0360354850690721e-02  8.0359506034874809e-02  8.0358847807766420e-02  8.0358338727020778e-02  8.0357945352883667e-02  8.0357641251591852e-02  8.0357405848186708e-02  8.0357223355757360e-02  8.0357081886261297e-02  8.0356972595942336e-02  8.0356888915546126e-02  8.0356825974970250e-02  8.0356780023534621e-02  8.0356748056528038e-02  8.0356727626334501e-02  8.0356716744206233e-02  1.4750291655317552e-01  1.4750576988715089e-01  8.0358291215826300e-02  8.0359044078443131e-02  8.0360337455775199e-02  8.0362298075478664e-02  8.0365081980180580e-02  8.0368863086926395e-02  8.0373834881221753e-02  8.0380215931260143e-02  8.0388253823273387e-02  8.0398225436997442e-02  8.0410436107540756e-02  8.0425214856520724e-02  8.0442911380546128e-02  8.0463891676720384e-02  8.0488540912521736e-02  8.0517271280038882e-02  8.0550530002101897e-02  8.0588815760698651e-02  8.0632740779256362e-02  8.0683039902253173e-02  8.0740691365264641e-02  8.0807064707328402e-02  8.0884161624654727e-02  8.0974775163290491e-02  8.1083095153665782e-02  8.1214583178556732e-02  8.1375462173579216e-02  8.1571417708885791e-02  8.1804705517115786e-02  8.2070152832515522e-02  8.2353637183796291e-02  8.2633472088647963e-02  8.2884455212781108e-02  8.3082903891821866e-02  8.3211068002816357e-02  8.3259642293886327e-02  8.3228226535546693e-02  8.3124645513255713e-02  8.2963174518757926e-02  8.2762018293580306e-02  8.2539986959694403e-02  8.2313718415192402e-02  8.2095866677665510e-02  8.1894583240482446e-02  8.1713959692428242e-02  8.1555108587443609e-02  8.1417151408833349e-02  8.1298141422054312e-02  8.1195677271947500e-02  8.1107310744333194e-02  8.1030784504934450e-02  8.0964104678469789e-02  8.0905578350649876e-02  8.0853790317654481e-02  8.0807593627668373e-02  8.0766049720041477e-02  8.0728430223973108e-02  8.0694101583919584e-02  8.0662620988263239e-02  8.0633605593181140e-02  8.0606773855364036e-02  8.0581893498432436e-02  8.0558801999281213e-02  8.0537362830610387e-02  8.0517479682366680e-02  8.0499069446361773e-02  8.0482080355826574e-02  8.0466460079712990e-02  8.0452169907817436e-02  8.0439169891160622e-02  8.0427424243616041e-02  8.0416888667561207e-02  8.0407519542065264e-02  8.0399263970159687e-02  8.0392062098380998e-02  8.0385844287504934e-02  8.0380533327328765e-02  8.0376045046433087e-02  8.0372290359894571e-02  8.0369179440443028e-02  8.0366624638776918e-02  8.0364544100737401e-02  8.0362863217126435e-02  8.0361515429563823e-02  8.0360442499626525e-02  8.0359594172719553e-02  8.0358927334198180e-02  8.0358405657571325e-02  8.0357998838826022e-02  8.0357682124639854e-02  8.0357435625249843e-02  8.0357243768660297e-02  8.0357094625920000e-02  8.0356979341080340e-02  8.0356891404132283e-02  8.0356826038066487e-02  8.0356779694083724e-02  8.0356749740263536e-02  8.0356734067630650e-02  1.4750293501557604e-01  1.4750763805167966e-01  8.0359289622811414e-02  8.0360359108859233e-02  8.0362094028621919e-02  8.0364598932659792e-02  8.0368010941503643e-02  8.0372474567465546e-02  8.0378137968319344e-02  8.0385158604216120e-02  8.0393708509232484e-02  8.0403976460465043e-02  8.0416168736709634e-02  8.0430504385492749e-02  8.0447217763473883e-02  8.0466546418538593e-02  8.0488750729392960e-02  8.0514119924478766e-02  8.0543009239726099e-02  8.0575872841793211e-02  8.0613373644403727e-02  8.0656513684373168e-02  8.0706946506981139e-02  8.0767352616159097e-02  8.0842228489304974e-02  8.0938910849111187e-02  8.1068828526101033e-02  8.1248212543427109e-02  8.1497170091278867e-02  8.1836178850056243e-02  8.2277840704427230e-02  8.2815042515655704e-02  8.3416292405390252e-02  8.4029439048491236e-02  8.4591172694642086e-02  8.5041216303432643e-02  8.5334758815760581e-02  8.5448828522400377e-02  8.5383120878179536e-02  8.5157480986401260e-02  8.4807546080976695e-02  8.4377905939424389e-02  8.3913358140071642e-02  8.3451678765251835e-02  8.3019635602689962e-02  8.2632469432619579e-02  8.2295975049132775e-02  8.2009608211323304e-02  8.1769211911159961e-02  8.1568939371041108e-02  8.1402628941745173e-02  8.1264480135032138e-02  8.1149365152425518e-02  8.1052961668638443e-02  8.0971701167645946e-02  8.0902666746362858e-02  8.0843516805810478e-02  8.0792379086894531e-02  8.0747754766341578e-02  8.0708462329711725e-02  8.0673554742801967e-02  8.0642285297971378e-02  8.0614065817391334e-02  8.0588441146038053e-02  8.0565044080889825e-02  8.0543594637190782e-02  8.0523872001911884e-02  8.0505705289927454e-02  8.0488963686433296e-02  8.0473546744476640e-02  8.0459375300984876e-02  8.0446391034651510e-02  8.0434544422284801e-02  8.0423796586431021e-02  8.0414112094510035e-02  8.0405454491325745e-02  8.0397784689962337e-02  8.0391056829567389e-02  8.0385215110435490e-02  8.0380194470068028e-02  8.0375921308638396e-02  8.0372317025855705e-02  8.0369302558627689e-02  8.0366801468025356e-02  8.0364742918798845e-02  8.0363062313079187e-02  8.0361701597192525e-02  8.0360608932170605e-02  8.0359738272602996e-02  8.0359049140236158e-02  8.0358506559995282e-02  8.0358080726136635e-02  8.0357746939653044e-02  8.0357485245841451e-02  8.0357280083301341e-02  8.0357119664645899e-02  8.0356995353878524e-02  8.0356900982598997e-02  8.0356832290547006e-02  8.0356786648080561e-02  8.0356762389201322e-02  1.4750296368265725e-01  1.4751056562219350e-01  8.0360799526587909e-02  8.0362213699041535e-02  8.0364424526989373e-02  8.0367506643709424e-02  8.0371578681953992e-02  8.0376764792624025e-02  8.0383185965101356e-02  8.0390963270083562e-02  8.0400222460530801e-02  8.0411097203065718e-02  8.0423729258397733e-02  8.0438265781631421e-02  8.0454864413756447e-02  8.0473687372924749e-02  8.0494927306126410e-02  8.0518832344934149e-02  8.0545771292235183e-02  8.0576312650404283e-02  8.0611425942591131e-02  8.0652763743998407e-02  8.0703264538883934e-02  8.0768178714149624e-02  8.0856932151998046e-02  8.0985992376871027e-02  8.1182629107622972e-02  8.1488034176881816e-02  8.1956965189945594e-02  8.2651117482213030e-02  8.3616358538810734e-02  8.4847091733822141e-02  8.6272517185060668e-02  8.7761970116698979e-02  8.9144949327048958e-02  9.0254086386323512e-02  9.0965061332141967e-02  9.1216227782223602e-02  9.1011095135543230e-02  9.0409499971722262e-02  8.9513817699659798e-02  8.8448292557861879e-02  8.7331578864400211e-02  8.6256744179089018e-02  8.5282878323896749e-02  8.4437079900877982e-02  8.3723421478895027e-02  8.3132834369714290e-02  8.2650195910648580e-02  8.2258593488891127e-02  8.1941878338648980e-02  8.1685841887623040e-02  8.1478527062161743e-02  8.1310126117148954e-02  8.1172725973203880e-02  8.1060007380523019e-02  8.0966937371867803e-02  8.0889535070513552e-02  8.0824642975602351e-02  8.0769761055722020e-02  8.0722916192277186e-02  8.0682545840078307e-02  8.0647416208890349e-02  8.0616556420630134e-02  8.0589201608824823e-02  8.0564746303708745e-02  8.0542719269629220e-02  8.0522753230123256e-02  8.0504563819998556e-02  8.0487931770133594e-02  8.0472692348696487e-02  8.0458723850630423e-02  8.0445936201765197e-02  8.0434265099545779e-02  8.0423665097773628e-02  8.0414100782649600e-02  8.0405540965050676e-02  8.0397951736641840e-02  8.0391290147759489e-02  8.0385501351853017e-02  8.0380517699441434e-02  8.0376263397301431e-02  8.0372659669796218e-02  8.0369629661937156e-02  8.0367101576944600e-02  8.0365009816334973e-02  8.0363294238948363e-02  8.0361900036933637e-02  8.0360776999298597e-02  8.0359879550635088e-02  8.0359167056261865e-02  8.0358603915666724e-02  8.0358159751861585e-02  8.0357809465488678e-02  8.0357532972133799e-02  8.0357314802274829e-02  8.0357143498633030e-02  8.0357010928890499e-02  8.0356911845691187e-02  8.0356843755738525e-02  8.0356806151113888e-02  1.4750300494857918e-01  1.4751492458682547e-01  8.0362962448624564e-02  8.0364678339397477e-02  8.0367333941050778e-02  8.0370971707548713e-02  8.0375687206079544e-02  8.0381586054188867e-02  8.0388772423256386e-02  8.0397349350964084e-02  8.0407420547298936e-02  8.0419093411991591e-02  8.0432478128630552e-02  8.0447691258889856e-02  8.0464859481070850e-02  8.0484135996933326e-02  8.0505726970768493e-02  8.0529962608949957e-02  8.0557392550307264e-02  8.0588957956195598e-02  8.0626270295561422e-02  8.0672205905227862e-02  8.0731953625349753e-02  8.0815264484860802e-02  8.0940677389928856e-02  8.1142890925473207e-02  8.1483630530341383e-02  8.2063427664730945e-02  8.3028381536488255e-02  8.4566611598589775e-02  8.6851297960715224e-02  8.9928718567285446e-02  9.3672627784945409e-02  9.7760139584527672e-02  1.0167818219685175e-01  1.0486526987184930e-01  1.0687823105322418e-01  1.0748878823593984e-01  1.0671489019081719e-01  1.0478788831959193e-01  1.0207991276270223e-01  9.9011939372546098e-02  9.5948250251271294e-02  9.3138171786483398e-02  9.0707275424381839e-02  8.8682466985495340e-02  8.7034455336862437e-02  8.5712118380030025e-02  8.4660170268129581e-02  8.3826624227650373e-02  8.3166719139013884e-02  8.2643918103523978e-02  8.2228978365190636e-02  8.1898752868398775e-02  8.1635098910007628e-02  8.1423828044104543e-02  8.1253814604481361e-02  8.1116340429091577e-02  8.1004565443056564e-02  8.0913117510469895e-02  8.0837769327755993e-02  8.0775190432783736e-02  8.0722765729528245e-02  8.0678430478755850e-02  8.0640561456633647e-02  8.0607874908232152e-02  8.0579370524042238e-02  8.0554262586406897e-02  8.0531937816866211e-02  8.0511927723294616e-02  8.0493870164789802e-02  8.0477496512750116e-02  8.0462609006251282e-02  8.0449066692194524e-02  8.0436772440018955e-02  8.0425660465678131e-02  8.0415684077367974e-02  8.0406803636805094e-02  8.0398974225446174e-02  8.0392137480291961e-02  8.0386219223941013e-02  8.0381133755315567e-02  8.0376791773073081e-02  8.0373107849161962e-02  8.0370003807162790e-02  8.0367409358549274e-02  8.0365260523440257e-02  8.0363497923016738e-02  8.0362066079292624e-02  8.0360913289846514e-02  8.0359992301810595e-02  8.0359260607227784e-02  8.0358681155206640e-02  8.0358222572611313e-02  8.0357859190247946e-02  8.0357570793958624e-02  8.0357342186882327e-02  8.0357162556833256e-02  8.0357025225176210e-02  8.0356927793045652e-02  8.0356871540714525e-02  1.4750306368129218e-01  1.4752108702916394e-01  8.0365920679324493e-02  8.0367806869911296e-02  8.0370794565998258e-02  8.0374901472889698e-02  8.0380191660326311e-02  8.0386746979060009e-02  8.0394658833710136e-02  8.0404024316049344e-02  8.0414945944974239e-02  8.0427531502064165e-02  8.0441896602875401e-02  8.0458177304154749e-02  8.0476533886721685e-02  8.0497208064668826e-02  8.0520574436146700e-02  8.0547255402971196e-02  8.0578309913251780e-02  8.0615492338221434e-02  8.0661704779050852e-02  8.0721858693785842e-02  8.0804741716380413e-02  8.0927256516212465e-02  8.1123616722377598e-02  8.1463362450171176e-02  8.2081748300299046e-02  8.3220734544143485e-02  8.5275776013738147e-02  8.8862379263724256e-02  9.4728175233165735e-02  1.0343387479799518e-01  1.1523410518206761e-01  1.2971803065331400e-01  1.4515786824434304e-01  1.5871445093555320e-01  1.6748825830892589e-01  1.6965304614053939e-01  1.6521174784331313e-01  1.5587139210758924e-01  1.4407002325838494e-01  1.3200327682843249e-01  1.2110305216355223e-01  1.1202152108627242e-01  1.0482968714006502e-01  9.9275635941369136e-02  9.5022715718009992e-02  9.1772801153729100e-02  8.9288093726560686e-02  8.7381356190015746e-02  8.5910573235177964e-02  8.4770693427383761e-02  8.3883217260339760e-02  8.3189137775987548e-02  8.2644141788752901e-02  8.2214654723652997e-02  8.1874966757120693e-02  8.1605310075634541e-02  8.1390432815058589e-02  8.1218482004612055e-02  8.1080233890831993e-02  8.0968484490691758e-02  8.0877594963814567e-02  8.0803146897850550e-02  8.0741671686913832e-02  8.0690451149604325e-02  8.0647346670656511e-02  8.0610686331348796e-02  8.0579165563106264e-02  8.0551770834670230e-02  8.0527719441800996e-02  8.0506418053932077e-02  8.0487420707007984e-02  8.0470399762823469e-02  8.0455121783288758e-02  8.0441425153399179e-02  8.0429198831238100e-02  8.0418361147373066e-02  8.0408836808840325e-02  8.0400539593245932e-02  8.0393364374531373e-02  8.0387193499105600e-02  8.0381908889498088e-02  8.0377402303099171e-02  8.0373580294957989e-02  8.0370362600573203e-02  8.0367677974887045e-02  8.0365460609516548e-02  8.0363647963480500e-02  8.0362180828534496e-02  8.0361003684147309e-02  8.0360065701503960e-02  8.0359321623641677e-02  8.0358732273600686e-02  8.0358264896281312e-02  8.0357893225783364e-02  8.0357597083183296e-02  8.0357362048991576e-02  8.0357179372495660e-02  8.0357046424363060e-02  8.0356966598092924e-02  1.4750314602366621e-01  1.4752936677485853e-01  8.0369796046088460e-02  8.0371631115912140e-02  8.0374753128890877e-02  8.0379174914465085e-02  8.0384917928192107e-02  8.0392030669910200e-02  8.0400590216640644e-02  8.0410696129355086e-02  8.0422467663034111e-02  8.0436041965283214e-02  8.0451587373833386e-02  8.0469321158087886e-02  8.0489557050909460e-02  8.0512793342000191e-02  8.0539850948314187e-02  8.0572100940041191e-02  8.0611771190010714e-02  8.0662369269724324e-02  8.0729303185588686e-02  8.0820967838230770e-02  8.09513432485