<?xml version="1.0"?>
<VTKFile type="UnstructuredGrid"  version="0.1"  >
<UnstructuredGrid>
<Piece  NumberOfPoints="5151" NumberOfCells="10000">
<Points>
<DataArray  type="Float64"  NumberOfComponents="3"  format="ascii">0 0 0  0.02 0 0  0.04 0 0  0.06 0 0  0.08 0 0  0.1 0 0  0.12 0 0  0.14 0 0  0.16 0 0  0.18 0 0  0.2 0 0  0.22 0 0  0.24 0 0  0.26 0 0  0.28 0 0  0.3 0 0  0.32 0 0  0.34 0 0  0.36 0 0  0.38 0 0  0.4 0 0  0.42 0 0  0.44 0 0  0.46 0 0  0.48 0 0  0.5 0 0  0.52 0 0  0.54 0 0  0.5600000000000001 0 0  0.58 0 0  0.6 0 0  0.62 0 0  0.64 0 0  0.66 0 0  0.68 0 0  0.7 0 0  0.72 0 0  0.74 0 0  0.76 0 0  0.78 0 0  0.8 0 0  0.82 0 0  0.84 0 0  0.86 0 0  0.88 0 0  0.9 0 0  0.92 0 0  0.9399999999999999 0 0  0.96 0 0  0.98 0 0  1 0 0  1.02 0 0  1.04 0 0  1.06 0 0  1.08 0 0  1.1 0 0  1.12 0 0  1.14 0 0  1.16 0 0  1.18 0 0  1.2 0 0  1.22 0 0  1.24 0 0  1.26 0 0  1.28 0 0  1.3 0 0  1.32 0 0  1.34 0 0  1.36 0 0  1.38 0 0  1.4 0 0  1.42 0 0  1.44 0 0  1.46 0 0  1.48 0 0  1.5 0 0  1.52 0 0  1.54 0 0  1.56 0 0  1.58 0 0  1.6 0 0  1.62 0 0  1.64 0 0  1.66 0 0  1.68 0 0  1.7 0 0  1.72 0 0  1.74 0 0  1.76 0 0  1.78 0 0  1.8 0 0  1.82 0 0  1.84 0 0  1.86 0 0  1.88 0 0  1.9 0 0  1.92 0 0  1.94 0 0  1.96 0 0  1.98 0 0  2 0 0  0 0.02 0  0.02 0.02 0  0.04 0.02 0  0.06 0.02 0  0.08 0.02 0  0.1 0.02 0  0.12 0.02 0  0.14 0.02 0  0.16 0.02 0  0.18 0.02 0  0.2 0.02 0  0.22 0.02 0  0.24 0.02 0  0.26 0.02 0  0.28 0.02 0  0.3 0.02 0  0.32 0.02 0  0.34 0.02 0  0.36 0.02 0  0.38 0.02 0  0.4 0.02 0  0.42 0.02 0  0.44 0.02 0  0.46 0.02 0  0.48 0.02 0  0.5 0.02 0  0.52 0.02 0  0.54 0.02 0  0.5600000000000001 0.02 0  0.58 0.02 0  0.6 0.02 0  0.62 0.02 0  0.64 0.02 0  0.66 0.02 0  0.68 0.02 0  0.7 0.02 0  0.72 0.02 0  0.74 0.02 0  0.76 0.02 0  0.78 0.02 0  0.8 0.02 0  0.82 0.02 0  0.84 0.02 0  0.86 0.02 0  0.88 0.02 0  0.9 0.02 0  0.92 0.02 0  0.9399999999999999 0.02 0  0.96 0.02 0  0.98 0.02 0  1 0.02 0  1.02 0.02 0  1.04 0.02 0  1.06 0.02 0  1.08 0.02 0  1.1 0.02 0  1.12 0.02 0  1.14 0.02 0  1.16 0.02 0  1.18 0.02 0  1.2 0.02 0  1.22 0.02 0  1.24 0.02 0  1.26 0.02 0  1.28 0.02 0  1.3 0.02 0  1.32 0.02 0  1.34 0.02 0  1.36 0.02 0  1.38 0.02 0  1.4 0.02 0  1.42 0.02 0  1.44 0.02 0  1.46 0.02 0  1.48 0.02 0  1.5 0.02 0  1.52 0.02 0  1.54 0.02 0  1.56 0.02 0  1.58 0.02 0  1.6 0.02 0  1.62 0.02 0  1.64 0.02 0  1.66 0.02 0  1.68 0.02 0  1.7 0.02 0  1.72 0.02 0  1.74 0.02 0  1.76 0.02 0  1.78 0.02 0  1.8 0.02 0  1.82 0.02 0  1.84 0.02 0  1.86 0.02 0  1.88 0.02 0  1.9 0.02 0  1.92 0.02 0  1.94 0.02 0  1.96 0.02 0  1.98 0.02 0  2 0.02 0  0 0.04 0  0.02 0.04 0  0.04 0.04 0  0.06 0.04 0  0.08 0.04 0  0.1 0.04 0  0.12 0.04 0  0.14 0.04 0  0.16 0.04 0  0.18 0.04 0  0.2 0.04 0  0.22 0.04 0  0.24 0.04 0  0.26 0.04 0  0.28 0.04 0  0.3 0.04 0  0.32 0.04 0  0.34 0.04 0  0.36 0.04 0  0.38 0.04 0  0.4 0.04 0  0.42 0.04 0  0.44 0.04 0  0.46 0.04 0  0.48 0.04 0  0.5 0.04 0  0.52 0.04 0  0.54 0.04 0  0.5600000000000001 0.04 0  0.58 0.04 0  0.6 0.04 0  0.62 0.04 0  0.64 0.04 0  0.66 0.04 0  0.68 0.04 0  0.7 0.04 0  0.72 0.04 0  0.74 0.04 0  0.76 0.04 0  0.78 0.04 0  0.8 0.04 0  0.82 0.04 0  0.84 0.04 0  0.86 0.04 0  0.88 0.04 0  0.9 0.04 0  0.92 0.04 0  0.9399999999999999 0.04 0  0.96 0.04 0  0.98 0.04 0  1 0.04 0  1.02 0.04 0  1.04 0.04 0  1.06 0.04 0  1.08 0.04 0  1.1 0.04 0  1.12 0.04 0  1.14 0.04 0  1.16 0.04 0  1.18 0.04 0  1.2 0.04 0  1.22 0.04 0  1.24 0.04 0  1.26 0.04 0  1.28 0.04 0  1.3 0.04 0  1.32 0.04 0  1.34 0.04 0  1.36 0.04 0  1.38 0.04 0  1.4 0.04 0  1.42 0.04 0  1.44 0.04 0  1.46 0.04 0  1.48 0.04 0  1.5 0.04 0  1.52 0.04 0  1.54 0.04 0  1.56 0.04 0  1.58 0.04 0  1.6 0.04 0  1.62 0.04 0  1.64 0.04 0  1.66 0.04 0  1.68 0.04 0  1.7 0.04 0  1.72 0.04 0  1.74 0.04 0  1.76 0.04 0  1.78 0.04 0  1.8 0.04 0  1.82 0.04 0  1.84 0.04 0  1.86 0.04 0  1.88 0.04 0  1.9 0.04 0  1.92 0.04 0  1.94 0.04 0  1.96 0.04 0  1.98 0.04 0  2 0.04 0  0 0.06 0  0.02 0.06 0  0.04 0.06 0  0.06 0.06 0  0.08 0.06 0  0.1 0.06 0  0.12 0.06 0  0.14 0.06 0  0.16 0.06 0  0.18 0.06 0  0.2 0.06 0  0.22 0.06 0  0.24 0.06 0  0.26 0.06 0  0.28 0.06 0  0.3 0.06 0  0.32 0.06 0  0.34 0.06 0  0.36 0.06 0  0.38 0.06 0  0.4 0.06 0  0.42 0.06 0  0.44 0.06 0  0.46 0.06 0  0.48 0.06 0  0.5 0.06 0  0.52 0.06 0  0.54 0.06 0  0.5600000000000001 0.06 0  0.58 0.06 0  0.6 0.06 0  0.62 0.06 0  0.64 0.06 0  0.66 0.06 0  0.68 0.06 0  0.7 0.06 0  0.72 0.06 0  0.74 0.06 0  0.76 0.06 0  0.78 0.06 0  0.8 0.06 0  0.82 0.06 0  0.84 0.06 0  0.86 0.06 0  0.88 0.06 0  0.9 0.06 0  0.92 0.06 0  0.9399999999999999 0.06 0  0.96 0.06 0  0.98 0.06 0  1 0.06 0  1.02 0.06 0  1.04 0.06 0  1.06 0.06 0  1.08 0.06 0  1.1 0.06 0  1.12 0.06 0  1.14 0.06 0  1.16 0.06 0  1.18 0.06 0  1.2 0.06 0  1.22 0.06 0  1.24 0.06 0  1.26 0.06 0  1.28 0.06 0  1.3 0.06 0  1.32 0.06 0  1.34 0.06 0  1.36 0.06 0  1.38 0.06 0  1.4 0.06 0  1.42 0.06 0  1.44 0.06 0  1.46 0.06 0  1.48 0.06 0  1.5 0.06 0  1.52 0.06 0  1.54 0.06 0  1.56 0.06 0  1.58 0.06 0  1.6 0.06 0  1.62 0.06 0  1.64 0.06 0  1.66 0.06 0  1.68 0.06 0  1.7 0.06 0  1.72 0.06 0  1.74 0.06 0  1.76 0.06 0  1.78 0.06 0  1.8 0.06 0  1.82 0.06 0  1.84 0.06 0  1.86 0.06 0  1.88 0.06 0  1.9 0.06 0  1.92 0.06 0  1.94 0.06 0  1.96 0.06 0  1.98 0.06 0  2 0.06 0  0 0.08 0  0.02 0.08 0  0.04 0.08 0  0.06 0.08 0  0.08 0.08 0  0.1 0.08 0  0.12 0.08 0  0.14 0.08 0  0.16 0.08 0  0.18 0.08 0  0.2 0.08 0  0.22 0.08 0  0.24 0.08 0  0.26 0.08 0  0.28 0.08 0  0.3 0.08 0  0.32 0.08 0  0.34 0.08 0  0.36 0.08 0  0.38 0.08 0  0.4 0.08 0  0.42 0.08 0  0.44 0.08 0  0.46 0.08 0  0.48 0.08 0  0.5 0.08 0  0.52 0.08 0  0.54 0.08 0  0.5600000000000001 0.08 0  0.58 0.08 0  0.6 0.08 0  0.62 0.08 0  0.64 0.08 0  0.66 0.08 0  0.68 0.08 0  0.7 0.08 0  0.72 0.08 0  0.74 0.08 0  0.76 0.08 0  0.78 0.08 0  0.8 0.08 0  0.82 0.08 0  0.84 0.08 0  0.86 0.08 0  0.88 0.08 0  0.9 0.08 0  0.92 0.08 0  0.9399999999999999 0.08 0  0.96 0.08 0  0.98 0.08 0  1 0.08 0  1.02 0.08 0  1.04 0.08 0  1.06 0.08 0  1.08 0.08 0  1.1 0.08 0  1.12 0.08 0  1.14 0.08 0  1.16 0.08 0  1.18 0.08 0  1.2 0.08 0  1.22 0.08 0  1.24 0.08 0  1.26 0.08 0  1.28 0.08 0  1.3 0.08 0  1.32 0.08 0  1.34 0.08 0  1.36 0.08 0  1.38 0.08 0  1.4 0.08 0  1.42 0.08 0  1.44 0.08 0  1.46 0.08 0  1.48 0.08 0  1.5 0.08 0  1.52 0.08 0  1.54 0.08 0  1.56 0.08 0  1.58 0.08 0  1.6 0.08 0  1.62 0.08 0  1.64 0.08 0  1.66 0.08 0  1.68 0.08 0  1.7 0.08 0  1.72 0.08 0  1.74 0.08 0  1.76 0.08 0  1.78 0.08 0  1.8 0.08 0  1.82 0.08 0  1.84 0.08 0  1.86 0.08 0  1.88 0.08 0  1.9 0.08 0  1.92 0.08 0  1.94 0.08 0  1.96 0.08 0  1.98 0.08 0  2 0.08 0  0 0.1 0  0.02 0.1 0  0.04 0.1 0  0.06 0.1 0  0.08 0.1 0  0.1 0.1 0  0.12 0.1 0  0.14 0.1 0  0.16 0.1 0  0.18 0.1 0  0.2 0.1 0  0.22 0.1 0  0.24 0.1 0  0.26 0.1 0  0.28 0.1 0  0.3 0.1 0  0.32 0.1 0  0.34 0.1 0  0.36 0.1 0  0.38 0.1 0  0.4 0.1 0  0.42 0.1 0  0.44 0.1 0  0.46 0.1 0  0.48 0.1 0  0.5 0.1 0  0.52 0.1 0  0.54 0.1 0  0.5600000000000001 0.1 0  0.58 0.1 0  0.6 0.1 0  0.62 0.1 0  0.64 0.1 0  0.66 0.1 0  0.68 0.1 0  0.7 0.1 0  0.72 0.1 0  0.74 0.1 0  0.76 0.1 0  0.78 0.1 0  0.8 0.1 0  0.82 0.1 0  0.84 0.1 0  0.86 0.1 0  0.88 0.1 0  0.9 0.1 0  0.92 0.1 0  0.9399999999999999 0.1 0  0.96 0.1 0  0.98 0.1 0  1 0.1 0  1.02 0.1 0  1.04 0.1 0  1.06 0.1 0  1.08 0.1 0  1.1 0.1 0  1.12 0.1 0  1.14 0.1 0  1.16 0.1 0  1.18 0.1 0  1.2 0.1 0  1.22 0.1 0  1.24 0.1 0  1.26 0.1 0  1.28 0.1 0  1.3 0.1 0  1.32 0.1 0  1.34 0.1 0  1.36 0.1 0  1.38 0.1 0  1.4 0.1 0  1.42 0.1 0  1.44 0.1 0  1.46 0.1 0  1.48 0.1 0  1.5 0.1 0  1.52 0.1 0  1.54 0.1 0  1.56 0.1 0  1.58 0.1 0  1.6 0.1 0  1.62 0.1 0  1.64 0.1 0  1.66 0.1 0  1.68 0.1 0  1.7 0.1 0  1.72 0.1 0  1.74 0.1 0  1.76 0.1 0  1.78 0.1 0  1.8 0.1 0  1.82 0.1 0  1.84 0.1 0  1.86 0.1 0  1.88 0.1 0  1.9 0.1 0  1.92 0.1 0  1.94 0.1 0  1.96 0.1 0  1.98 0.1 0  2 0.1 0  0 0.12 0  0.02 0.12 0  0.04 0.12 0  0.06 0.12 0  0.08 0.12 0  0.1 0.12 0  0.12 0.12 0  0.14 0.12 0  0.16 0.12 0  0.18 0.12 0  0.2 0.12 0  0.22 0.12 0  0.24 0.12 0  0.26 0.12 0  0.28 0.12 0  0.3 0.12 0  0.32 0.12 0  0.34 0.12 0  0.36 0.12 0  0.38 0.12 0  0.4 0.12 0  0.42 0.12 0  0.44 0.12 0  0.46 0.12 0  0.48 0.12 0  0.5 0.12 0  0.52 0.12 0  0.54 0.12 0  0.5600000000000001 0.12 0  0.58 0.12 0  0.6 0.12 0  0.62 0.12 0  0.64 0.12 0  0.66 0.12 0  0.68 0.12 0  0.7 0.12 0  0.72 0.12 0  0.74 0.12 0  0.76 0.12 0  0.78 0.12 0  0.8 0.12 0  0.82 0.12 0  0.84 0.12 0  0.86 0.12 0  0.88 0.12 0  0.9 0.12 0  0.92 0.12 0  0.9399999999999999 0.12 0  0.96 0.12 0  0.98 0.12 0  1 0.12 0  1.02 0.12 0  1.04 0.12 0  1.06 0.12 0  1.08 0.12 0  1.1 0.12 0  1.12 0.12 0  1.14 0.12 0  1.16 0.12 0  1.18 0.12 0  1.2 0.12 0  1.22 0.12 0  1.24 0.12 0  1.26 0.12 0  1.28 0.12 0  1.3 0.12 0  1.32 0.12 0  1.34 0.12 0  1.36 0.12 0  1.38 0.12 0  1.4 0.12 0  1.42 0.12 0  1.44 0.12 0  1.46 0.12 0  1.48 0.12 0  1.5 0.12 0  1.52 0.12 0  1.54 0.12 0  1.56 0.12 0  1.58 0.12 0  1.6 0.12 0  1.62 0.12 0  1.64 0.12 0  1.66 0.12 0  1.68 0.12 0  1.7 0.12 0  1.72 0.12 0  1.74 0.12 0  1.76 0.12 0  1.78 0.12 0  1.8 0.12 0  1.82 0.12 0  1.84 0.12 0  1.86 0.12 0  1.88 0.12 0  1.9 0.12 0  1.92 0.12 0  1.94 0.12 0  1.96 0.12 0  1.98 0.12 0  2 0.12 0  0 0.14 0  0.02 0.14 0  0.04 0.14 0  0.06 0.14 0  0.08 0.14 0  0.1 0.14 0  0.12 0.14 0  0.14 0.14 0  0.16 0.14 0  0.18 0.14 0  0.2 0.14 0  0.22 0.14 0  0.24 0.14 0  0.26 0.14 0  0.28 0.14 0  0.3 0.14 0  0.32 0.14 0  0.34 0.14 0  0.36 0.14 0  0.38 0.14 0  0.4 0.14 0  0.42 0.14 0  0.44 0.14 0  0.46 0.14 0  0.48 0.14 0  0.5 0.14 0  0.52 0.14 0  0.54 0.14 0  0.5600000000000001 0.14 0  0.58 0.14 0  0.6 0.14 0  0.62 0.14 0  0.64 0.14 0  0.66 0.14 0  0.68 0.14 0  0.7 0.14 0  0.72 0.14 0  0.74 0.14 0  0.76 0.14 0  0.78 0.14 0  0.8 0.14 0  0.82 0.14 0  0.84 0.14 0  0.86 0.14 0  0.88 0.14 0  0.9 0.14 0  0.92 0.14 0  0.9399999999999999 0.14 0  0.96 0.14 0  0.98 0.14 0  1 0.14 0  1.02 0.14 0  1.04 0.14 0  1.06 0.14 0  1.08 0.14 0  1.1 0.14 0  1.12 0.14 0  1.14 0.14 0  1.16 0.14 0  1.18 0.14 0  1.2 0.14 0  1.22 0.14 0  1.24 0.14 0  1.26 0.14 0  1.28 0.14 0  1.3 0.14 0  1.32 0.14 0  1.34 0.14 0  1.36 0.14 0  1.38 0.14 0  1.4 0.14 0  1.42 0.14 0  1.44 0.14 0  1.46 0.14 0  1.48 0.14 0  1
[...]
<PointData  Scalars="sols[i]"> 
<DataArray  type="Float64"  Name="sols[i]"  format="ascii">9.2595482616477825e-06  6.1697192524268626e-06  6.1697192524354312e-06  6.1697192524514867e-06  6.1697192524792448e-06  6.1697192525253192e-06  6.1697192525996311e-06  6.1697192527164852e-06  6.1697192528954853e-06  6.1697192531621389e-06  6.1697192535475516e-06  6.1697192540865652e-06  6.1697192548139827e-06  6.1697192557587387e-06  6.1697192569368175e-06  6.1697192583448065e-06  6.1697192599568424e-06  6.1697192617270226e-06  6.1697192635977991e-06  6.1697192655118953e-06  6.1697192674223189e-06  6.1697192692953044e-06  6.1697192711039535e-06  6.1697192728147076e-06  6.1697192743735862e-06  6.1697192757002770e-06  6.1697192766947309e-06  6.1697192772556336e-06  6.1697192773042957e-06  6.1697192768050951e-06  6.1697192757759789e-06  6.1697192742859869e-06  6.1697192724423265e-06  6.1697192703718231e-06  6.1697192682021160e-06  6.1697192660465239e-06  6.1697192639949195e-06  6.1697192621100848e-06  6.1697192604287863e-06  6.1697192589657698e-06  6.1697192577190576e-06  6.1697192566752419e-06  6.1697192558144430e-06  6.1697192551140628e-06  6.1697192545518540e-06  6.1697192541085127e-06  6.1697192537705474e-06  6.1697192535345962e-06  6.1697192534161395e-06  6.1697192534670547e-06  6.1697192538125992e-06  6.1697192547284121e-06  6.1697192567993068e-06  6.1697192612439614e-06  6.1697192705722591e-06  6.1697192899021913e-06  6.1697193295678709e-06  6.1697194102179283e-06  6.1697195726406142e-06  6.1697198963885710e-06  6.1697205344376032e-06  6.1697217763292754e-06  6.1697241604326500e-06  6.1697286679537552e-06  6.1697370471978049e-06  6.1697523341552348e-06  6.1697796473759397e-06  6.1698273236306540e-06  6.1699083891285684e-06  6.1700421580262784e-06  6.1702552902541601e-06  6.1705807484452216e-06  6.1710517222315679e-06  6.1716866560288233e-06  6.1724646417140104e-06  6.1733019105871711e-06  6.1740431855461109e-06  6.1744856071677624e-06  6.1744768685563696e-06  6.1740232083636905e-06  6.1732722412766395e-06  6.1724216572304231e-06  6.1716350784855192e-06  6.1710001521430558e-06  6.1705353400068334e-06  6.1702190214774158e-06  6.1700154927128757e-06  6.1698901642810162e-06  6.1698156459923699e-06  6.1697725793790129e-06  6.1697482666597632e-06  6.1697348094667803e-06  6.1697274859844429e-06  6.1697235591715818e-06  6.1697214813433430e-06  6.1697203951957035e-06  6.1697198342444234e-06  6.1697195489079886e-06  6.1697194083731939e-06  6.1697193469835866e-06  1.8528903583592995e-05  6.1697192524277113e-06  3.0798695685568044e-06  3.0798695685617316e-06  3.0798695685712230e-06  3.0798695685878681e-06  3.0798695686158210e-06  3.0798695686614282e-06  3.0798695687339732e-06  3.0798695688464215e-06  3.0798695690159454e-06  3.0798695692639113e-06  3.0798695696148066e-06  3.0798695700937368e-06  3.0798695707223483e-06  3.0798695715135952e-06  3.0798695724666920e-06  3.0798695735643251e-06  3.0798695747740334e-06  3.0798695760543322e-06  3.0798695773639082e-06  3.0798695786698005e-06  3.0798695799502289e-06  3.0798695811899705e-06  3.0798695823698128e-06  3.0798695834552847e-06  3.0798695843911290e-06  3.0798695851055814e-06  3.0798695855240043e-06  3.0798695855870197e-06  3.0798695852662212e-06  3.0798695845722281e-06  3.0798695835530526e-06  3.0798695822844950e-06  3.0798695808564809e-06  3.0798695793593154e-06  3.0798695778728192e-06  3.0798695764598217e-06  3.0798695751638219e-06  3.0798695740098915e-06  3.0798695730076665e-06  3.0798695721551778e-06  3.0798695714426456e-06  3.0798695708558678e-06  3.0798695703788714e-06  3.0798695699958748e-06  3.0798695696929043e-06  3.0798695694593591e-06  3.0798695692902346e-06  3.0798695691904481e-06  3.0798695691837066e-06  3.0798695693312034e-06  3.0798695697709825e-06  3.0798695707997951e-06  3.0798695730419540e-06  3.0798695777943975e-06  3.0798695877249660e-06  3.0798696082703689e-06  3.0798696504015679e-06  3.0798697360215407e-06  3.0798699083415309e-06  3.0798702514852882e-06  3.0798709268009481e-06  3.0798722385982329e-06  3.0798747500352768e-06  3.0798794811387452e-06  3.0798882348242154e-06  3.0799041098651793e-06  3.0799322627805581e-06  3.0799809530573746e-06  3.0800628055160828e-06  3.0801959624986827e-06  3.0804042043461906e-06  3.0807139379095428e-06  3.0811444194964273e-06  3.0816887528898559e-06  3.0822942997330628e-06  3.0828515938157395e-06  3.0832005791918852e-06  3.0832104442084812e-06  3.0828838455021270e-06  3.0823376447093163e-06  3.0817243658993023e-06  3.0811664094238568e-06  3.0807245842073073e-06  3.0804071751197282e-06  3.0801948665350415e-06  3.0800603367718207e-06  3.0799785945524537e-06  3.0799305491283608e-06  3.0799030568922925e-06  3.0798876696914262e-06  3.0798792167851194e-06  3.0798746472945875e-06  3.0798722118223017e-06  3.0798709301372657e-06  3.0798702634883748e-06  3.0798699206993982e-06  3.0798697468597292e-06  3.0798696610446694e-06  3.0798696223773939e-06  6.1697193369955968e-06  6.1697192524391378e-06  3.0798695685630263e-06  3.0798695685714877e-06  3.0798695685879748e-06  3.0798695686172542e-06  3.0798695686671347e-06  3.0798695687497733e-06  3.0798695688833178e-06  3.0798695690936429e-06  3.0798695694157750e-06  3.0798695698942330e-06  3.0798695705811585e-06  3.0798695715311572e-06  3.0798695727922554e-06  3.0798695743937622e-06  3.0798695763340674e-06  3.0798695785735293e-06  3.0798695810376350e-06  3.0798695836323709e-06  3.0798695862674633e-06  3.0798695888769626e-06  3.0798695914258363e-06  3.0798695938970596e-06  3.0798695962636485e-06  3.0798695984593752e-06  3.0798696003648105e-06  3.0798696018187434e-06  3.0798696026527600e-06  3.0798696027354533e-06  3.0798696020087634e-06  3.0798696005040831e-06  3.0798695983350201e-06  3.0798695956725516e-06  3.0798695927126844e-06  3.0798695896460490e-06  3.0798695866356168e-06  3.0798695838047646e-06  3.0798695812345600e-06  3.0798695789676254e-06  3.0798695770157091e-06  3.0798695753683507e-06  3.0798695740009736e-06  3.0798695728816415e-06  3.0798695719761061e-06  3.0798695712513255e-06  3.0798695706780138e-06  3.0798695702328069e-06  3.0798695699010715e-06  3.0798695696823202e-06  3.0798695696015907e-06  3.0798695697339561e-06  3.0798695702570333e-06  3.0798695715620303e-06  3.0798695744865966e-06  3.0798695807988305e-06  3.0798695941945253e-06  3.0798696223323538e-06  3.0798696809431615e-06  3.0798698020282544e-06  3.0798700499916639e-06  3.0798705528878009e-06  3.0798715618544132e-06  3.0798735617854999e-06  3.0798774723862275e-06  3.0798850029539119e-06  3.0798992572390053e-06  3.0799257230978520e-06  3.0799738127734677e-06  3.0800591136802667e-06  3.0802064020977839e-06  3.0804531073635125e-06  3.0808518478315936e-06  3.0814676259621717e-06  3.0823586119780090e-06  3.0835267256395468e-06  3.0848680168090409e-06  3.0861387971259004e-06  3.0869209568100238e-06  3.0868584135115540e-06  3.0860100228513891e-06  3.0847161645069895e-06  3.0833562801542072e-06  3.0821981647385433e-06  3.0813386442515637e-06  3.0807565159482772e-06  3.0803869721860821e-06  3.0801632840189354e-06  3.0800326653832722e-06  3.0799584913916405e-06  3.0799172993735510e-06  3.0798948409729061e-06  3.0798827870046712e-06  3.0798764057544601e-06  3.0798730690453006e-06  3.0798713439043875e-06  3.0798704613568425e-06  3.0798700145856778e-06  3.0798697913098520e-06  3.0798696825630654e-06  3.0798696341482491e-06  6.1697193528062088e-06  6.1697192524621297e-06  3.0798695685758732e-06  3.0798695685918584e-06  3.0798695686233380e-06  3.0798695686799939e-06  3.0798695687779698e-06  3.0798695689428934e-06  3.0798695692138072e-06  3.0798695696476138e-06  3.0798695703231053e-06  3.0798695713427822e-06  3.0798695728296193e-06  3.0798695749156429e-06  3.0798695777201144e-06  3.0798695813185518e-06  3.0798695857099678e-06  3.0798695907962393e-06  3.0798695963890818e-06  3.0798696022515019e-06  3.0798696081621151e-06  3.0798696139726587e-06  3.0798696196260136e-06  3.0798696251188525e-06  3.0798696304217844e-06  3.0798696353962789e-06  3.0798696397553700e-06  3.0798696430959934e-06  3.0798696449945043e-06  3.0798696451252612e-06  3.0798696433536321e-06  3.0798696397715750e-06  3.0798696346715884e-06  3.0798696284778531e-06  3.0798696216627048e-06  3.0798696146726738e-06  3.0798696078779906e-06  3.0798696015487817e-06  3.0798695958534724e-06  3.0798695908718056e-06  3.0798695866149675e-06  3.0798695830468979e-06  3.0798695801031802e-06  3.0798695777060189e-06  3.0798695757749363e-06  3.0798695742338115e-06  3.0798695730153935e-06  3.0798695720645283e-06  3.0798695713418229e-06  3.0798695708306487e-06  3.0798695705524818e-06  3.0798695706009786e-06  3.0798695712167009e-06  3.0798695729483132e-06  3.0798695769969439e-06  3.0798695859456145e-06  3.0798696052919444e-06  3.0798696466414921e-06  3.0798697342983454e-06  3.0798699187222064e-06  3.0798703036675919e-06  3.0798711001368243e-06  3.0798727318593622e-06  3.0798760374954822e-06  3.0798826493833688e-06  3.0798956837503776e-06  3.0799209580954932e-06  3.0799690564958041e-06  3.0800586755955604e-06  3.0802217599659627e-06  3.0805109004952357e-06  3.0810091685272374e-06  3.0818413103353852e-06  3.0831787730114472e-06  3.0852054198214000e-06  3.0879708545701881e-06  3.0912593461213990e-06  3.0945158467268342e-06  3.0965293559802024e-06  3.0961842015712084e-06  3.0938156063911187e-06  3.0904700957968335e-06  3.0871539164699851e-06  3.0845078608571652e-06  3.0826687468831158e-06  3.0814931262345776e-06  3.0807835067273246e-06  3.0803723159689352e-06  3.0801410775152351e-06  3.0800139660421160e-06  3.0799453499867976e-06  3.0799088686562764e-06  3.0798897281435089e-06  3.0798798053016202e-06  3.0798747175769607e-06  3.0798721357346700e-06  3.0798708383136930e-06  3.0798701926979350e-06  3.0798698752698609e-06  3.0798697229564463e-06  3.0798696559969977e-06  6.1697193841490841e-06  6.1697192525053258e-06  3.0798695686003089e-06  3.0798695686310968e-06  3.0798695686923949e-06  3.0798695688041863e-06  3.0798695690003723e-06  3.0798695693358181e-06  3.0798695698958487e-06  3.0798695708075848e-06  3.0798695722511682e-06  3.0798695744666481e-06  3.0798695777493904e-06  3.0798695824250715e-06  3.0798695887966994e-06  3.0798695970644114e-06  3.0798696072357194e-06  3.0798696190642762e-06  3.0798696320636633e-06  3.0798696456203956e-06  3.0798696591752266e-06  3.0798696723867972e-06  3.0798696851823196e-06  3.0798696976491491e-06  3.0798697098046064e-06  3.0798697213575903e-06  3.0798697315975097e-06  3.0798697394885982e-06  3.0798697439392621e-06  3.0798697441259016e-06  3.0798697397337575e-06  3.0798697310331596e-06  3.0798697187912321e-06  3.0798697040795488e-06  3.0798696880564044e-06  3.0798696717854275e-06  3.0798696561210723e-06  3.0798696416630466e-06  3.0798696287641274e-06  3.0798696175701101e-06  3.0798696080728421e-06  3.0798696001626822e-06  3.0798695936728521e-06  3.0798695884130223e-06  3.0798695841922787e-06  3.0798695808333637e-06  3.0798695781808355e-06  3.0798695761058005e-06  3.0798695745103711e-06  3.0798695733363636e-06  3.0798695725858331e-06  3.0798695723688753e-06  3.0798695730114633e-06  3.0798695752930592e-06  3.0798695809636712e-06  3.0798695938590638e-06  3.0798696222880781e-06  3.0798696841047793e-06  3.0798698173957902e-06  3.0798701027879059e-06  3.0798707095025517e-06  3.0798719892240837e-06  3.0798746645491572e-06  3.0798802005780827e-06  3.0798915220605187e-06  3.0799143621238177e-06  3.0799597207576580e-06  3.0800481797919717e-06  3.0802171403819188e-06  3.0805323422433278e-06  3.0811052279405094e-06  3.0821180877844370e-06  3.0838605638406620e-06  3.0867750869933832e-06  3.0914200280245771e-06  3.0979432469431305e-06  3.1056522553622805e-06  3.1133770938786535e-06  3.1180901510715970e-06  3.1166269298077748e-06  3.1105740859877533e-06  3.1026395616020693e-06  3.0949724883296641e-06  3.0890869054046840e-06  3.0852095834823495e-06  3.0828537905251562e-06  3.0814960218830038e-06  3.0807398089999503e-06  3.0803283827947950e-06  3.0801084254024824e-06  3.0799925000745110e-06  3.0799321641978056e-06  3.0799011206731784e-06  3.0798853207453683e-06  3.0798773616805311e-06  3.0798733915096551e-06  3.0798714295835646e-06  3.0798704691001772e-06  3.0798700042014358e-06  3.0798697843090713e-06  3.0798696887489263e-06  6.1697194317252028e-06  6.1697192525841033e-06  3.0798695686453231e-06  3.0798695687043982e-06  3.0798695688233500e-06  3.0798695690431944e-06  3.0798695694347570e-06  3.0798695701149545e-06  3.0798695712695028e-06  3.0798695731814747e-06  3.0798695762618599e-06  3.0798695810725141e-06  3.0798695883238111e-06  3.0798695988221721e-06  3.0798696133429291e-06  3.0798696324229069e-06  3.0798696561130297e-06  3.0798696837946619e-06  3.0798697142000382e-06  3.0798697457209150e-06  3.0798697769235971e-06  3.0798698070179556e-06  3.0798698360011162e-06  3.0798698643429635e-06  3.0798698923216993e-06  3.0798699193383416e-06  3.0798699436042418e-06  3.0798699624219279e-06  3.0798699729525740e-06  3.0798699731051881e-06  3.0798699621578476e-06  3.0798699409063208e-06  3.0798699113750858e-06  3.0798698762813343e-06  3.0798698384697941e-06  3.0798698004722235e-06  3.0798697642538849e-06  3.0798697311358162e-06  3.0798697018429075e-06  3.0798696766201417e-06  3.0798696553698494e-06  3.0798696377793476e-06  3.0798696234239455e-06  3.0798696118415593e-06  3.0798696025814492e-06  3.0798695952325926e-06  3.0798695894380529e-06  3.0798695849012140e-06  3.0798695813898550e-06  3.0798695787453847e-06  3.0798695769087568e-06  3.0798695759858356e-06  3.0798695764005899e-06  3.0798695792407427e-06  3.0798695870239069e-06  3.0798696053785798e-06  3.0798696467058590e-06  3.0798697381029455e-06  3.0798699383877030e-06  3.0798703743856959e-06  3.0798713175520609e-06  3.0798733439795211e-06  3.0798776641515929e-06  3.0798867917888663e-06  3.0799058745297694e-06  3.0799452793559588e-06  3.0800254705301190e-06  3.0801858806522787e-06  3.0805003148827325e-06  3.0811022115053607e-06  3.0822234431733393e-06  3.0842508716892075e-06  3.0878156983910801e-06  3.0939386588648947e-06  3.1039837052630121e-06  3.1179000496756294e-06  3.1322099518761375e-06  4.7741500711354454e-06  6.4708362802924519e-06  6.4465207769647824e-06  6.3927181286402666e-06  6.3342682225989715e-06  4.6864003952257389e-06  3.0966876930916401e-06  3.0895988629846414e-06  3.0851959486262558e-06  3.0826977207738120e-06  3.0813476963275627e-06  3.0806331663524788e-06  3.0802598833008799e-06  3.0800670360940463e-06  3.0799684682074072e-06  3.0799186179435210e-06  3.0798936668643493e-06  3.0798813034447291e-06  3.0798752359852348e-06  3.0798722854743961e-06  3.0798708635766213e-06  3.0798701856821115e-06  3.0798698694589146e-06  3.0798697335003789e-06  6.1697194968228578e-06  6.1697192527250614e-06  3.0798695687266527e-06  3.0798695688388045e-06  3.0798695690672548e-06  3.0798695694952377e-06  3.0798695702691374e-06  3.0798695716355591e-06  3.0798695739949948e-06  3.0798695779726547e-06  3.0798695844998864e-06  3.0798695948853667e-06  3.0798696108332259e-06  3.0798696343409732e-06  3.0798696674007111e-06  3.0798697114658392e-06  3.0798697667672015e-06  3.0798698317579648e-06  3.0798699031121422e-06  3.0798699765685635e-06  3.0798700484045147e-06  3.0798701167869173e-06  3.0798701821808208e-06  3.0798702464380344e-06  3.0798703108777985e-06  3.0798703743117215e-06  3.0798704321678763e-06  3.0798704773411428e-06  3.0798705023994962e-06  3.0798705020336796e-06  3.0798704746449086e-06  3.0798704225760447e-06  3.0798703511890955e-06  3.0798702673789394e-06  3.0798701781181653e-06  3.0798700894042898e-06  3.0798700057198529e-06  3.0798699299327688e-06  3.0798698634851868e-06  3.0798698067188585e-06  3.0798697592239581e-06  3.0798697201450855e-06  3.0798696884169915e-06  3.0798696629278261e-06  3.0798696426205687e-06  3.0798696265479465e-06  3.0798696138962050e-06  3.0798696039908421e-06  3.0798695962959353e-06  3.0798695904193046e-06  3.0798695861409136e-06  3.0798695834973653e-06  3.0798695829922342e-06  3.0798695860848349e-06  3.0798695962948977e-06  3.0798696216671483e-06  3.0798696802290674e-06  3.0798698120065096e-06  3.0798701053235846e-06  3.0798707539962904e-06  3.0798721807681079e-06  3.0798753013047201e-06  3.0798820826547052e-06  3.0798967089420339e-06  3.0799279747524676e-06  3.0799940989387329e-06  3.0801321562850119e-06  3.0804159392711616e-06  3.0809882837292574e-06  3.0821159882572846e-06  3.0842745125932197e-06  3.0882540979411323e-06  3.0952592366829988e-06  3.1069892737740230e-06  3.1246893453007769e-06  4.7809941540710062e-06  6.5358401001232335e-06  1.0053596687848323e-05  9.9987692255300853e-01  9.9986599780733076e-01  9.9982686892336747e-01  9.9976426632769866e-01  9.9968393867831828e-01  9.4702022001107664e-06  4.6588138270654905e-06  3.0887011612015062e-06  3.0846084461853431e-06  3.0823127577450384e-06  3.0811113678676678e-06  3.0804942818409452e-06  3.0801806676651229e-06  3.0800229226596537e-06  3.0799444166329908e-06  3.0799057570005171e-06  3.0798869125931042e-06  3.0798778148480995e-06  3.0798734618031851e-06  3.0798713968639930e-06  3.0798704271431040e-06  3.0798699809540423e-06  3.0798697910988739e-06  6.1697195804325152e-06  6.1697192529731997e-06  3.0798695688712247e-06  3.0798695690813503e-06  3.0798695695144442e-06  3.0798695703371198e-06  3.0798695718479577e-06  3.0798695745606167e-06  3.0798695793287210e-06  3.0798695875187321e-06  3.0798696012223734e-06  3.0798696234667393e-06  3.0798696583219447e-06  3.0798697107299700e-06  3.0798697858242532e-06  3.0798698875723584e-06  3.0798700168843566e-06  3.0798701699234752e-06  3.0798703379099453e-06  3.0798705094323947e-06  3.0798706746999258e-06  3.0798708294511949e-06  3.0798709761129587e-06  3.0798711211619401e-06  3.0798712695777783e-06  3.0798714191354254e-06  3.0798715579536181e-06  3.0798716671069601e-06  3.0798717270235530e-06  3.0798717242490521e-06  3.0798716554465445e-06  3.0798715275098102e-06  3.0798713546754029e-06  3.0798711544290164e-06  3.0798709438002340e-06  3.0798707369010183e-06  3.0798705438429256e-06  3.0798703707324046e-06  3.0798702203041813e-06  3.0798700928040230e-06  3.0798699868589733e-06  3.0798699001992209e-06  3.0798698301885825e-06  3.0798697741749942e-06  3.0798697296963663e-06  3.0798696945825227e-06  3.0798696669898904e-06  3.0798696453981358e-06  3.0798696285919057e-06  3.0798696156486662e-06  3.0798696059587660e-06  3.0798695993240268e-06  3.0798695962321029e-06  3.0798695985215775e-06  3.0798696109195297e-06  3.0798696445302510e-06  3.0798697246831835e-06  3.0798699084934018e-06  3.0798703239753487e-06  3.0798712567410808e-06  3.0798733410848313e-06  3.0798779782651140e-06  3.0798882444752478e-06  3.0799108414205377e-06  3.0799602325577957e-06  3.0800672705796539e-06  3.0802968142145895e-06  3.0807827048806095e-06  3.0817945811941950e-06  3.0838582789455275e-06  3.0879472948678627e-06  3.0956256989053057e-06  3.1086717833767105e-06  3.1276866316450220e-06  4.7932694666532838e-06  1.0045705201497761e-05  9.9988925039914178e-01  9.9987797613107143e-01  5.0000002251576947e-01  5.0000001644015502e-01  5.0000001452190046e-01  5.0000001249440795e-01  5.0000000985159732e-01  9.9930665729391988e-01  9.9934836555975526e-01  6.2178177548383481e-06  3.0872041530504776e-06  3.0837805193611280e-06  3.0818414319423465e-06  3.0808473377663673e-06  3.0803488473779370e-06  3.0801019610873157e-06  3.0799811002545230e-06  3.0799225922790848e-06  3.0798945630588224e-06  3.0798812622344680e-06  3.0798750044091884e-06  3.0798720836315499e-06  3.0798707328010150e-06  3.0798701197313863e-06  3.0798698615252483e-06  6.1697196823494600e-06  6.1697192534028953e-06  3.0798695691240742e-06  3.0798695695120513e-06  3.0798695703213214e-06  3.0798695718803342e-06  3.0798695747890598e-06  3.0798695801020930e-06  3.0798695896142768e-06  3.0798696062750871e-06  3.0798696347311742e-06  3.0798696819225374e-06  3.0798697575101517e-06  3.0798698736876707e-06  3.0798700437064143e-06  3.0798702784756051e-06  3.0798705813393454e-06  3.0798709429047902e-06  3.0798713398526473e-06  3.0798717412834873e-06  3.0798721211139716e-06  3.0798724694200203e-06  3.07987279569