<?xml version="1.0"?>
<VTKFile type="UnstructuredGrid"  version="0.1"  >
<UnstructuredGrid>
<Piece  NumberOfPoints="5151" NumberOfCells="10000">
<Points>
<DataArray  type="Float64"  NumberOfComponents="3"  format="ascii">0 0 0  0.02 0 0  0.04 0 0  0.06 0 0  0.08 0 0  0.1 0 0  0.12 0 0  0.14 0 0  0.16 0 0  0.18 0 0  0.2 0 0  0.22 0 0  0.24 0 0  0.26 0 0  0.28 0 0  0.3 0 0  0.32 0 0  0.34 0 0  0.36 0 0  0.38 0 0  0.4 0 0  0.42 0 0  0.44 0 0  0.46 0 0  0.48 0 0  0.5 0 0  0.52 0 0  0.54 0 0  0.5600000000000001 0 0  0.58 0 0  0.6 0 0  0.62 0 0  0.64 0 0  0.66 0 0  0.68 0 0  0.7 0 0  0.72 0 0  0.74 0 0  0.76 0 0  0.78 0 0  0.8 0 0  0.82 0 0  0.84 0 0  0.86 0 0  0.88 0 0  0.9 0 0  0.92 0 0  0.9399999999999999 0 0  0.96 0 0  0.98 0 0  1 0 0  1.02 0 0  1.04 0 0  1.06 0 0  1.08 0 0  1.1 0 0  1.12 0 0  1.14 0 0  1.16 0 0  1.18 0 0  1.2 0 0  1.22 0 0  1.24 0 0  1.26 0 0  1.28 0 0  1.3 0 0  1.32 0 0  1.34 0 0  1.36 0 0  1.38 0 0  1.4 0 0  1.42 0 0  1.44 0 0  1.46 0 0  1.48 0 0  1.5 0 0  1.52 0 0  1.54 0 0  1.56 0 0  1.58 0 0  1.6 0 0  1.62 0 0  1.64 0 0  1.66 0 0  1.68 0 0  1.7 0 0  1.72 0 0  1.74 0 0  1.76 0 0  1.78 0 0  1.8 0 0  1.82 0 0  1.84 0 0  1.86 0 0  1.88 0 0  1.9 0 0  1.92 0 0  1.94 0 0  1.96 0 0  1.98 0 0  2 0 0  0 0.02 0  0.02 0.02 0  0.04 0.02 0  0.06 0.02 0  0.08 0.02 0  0.1 0.02 0  0.12 0.02 0  0.14 0.02 0  0.16 0.02 0  0.18 0.02 0  0.2 0.02 0  0.22 0.02 0  0.24 0.02 0  0.26 0.02 0  0.28 0.02 0  0.3 0.02 0  0.32 0.02 0  0.34 0.02 0  0.36 0.02 0  0.38 0.02 0  0.4 0.02 0  0.42 0.02 0  0.44 0.02 0  0.46 0.02 0  0.48 0.02 0  0.5 0.02 0  0.52 0.02 0  0.54 0.02 0  0.5600000000000001 0.02 0  0.58 0.02 0  0.6 0.02 0  0.62 0.02 0  0.64 0.02 0  0.66 0.02 0  0.68 0.02 0  0.7 0.02 0  0.72 0.02 0  0.74 0.02 0  0.76 0.02 0  0.78 0.02 0  0.8 0.02 0  0.82 0.02 0  0.84 0.02 0  0.86 0.02 0  0.88 0.02 0  0.9 0.02 0  0.92 0.02 0  0.9399999999999999 0.02 0  0.96 0.02 0  0.98 0.02 0  1 0.02 0  1.02 0.02 0  1.04 0.02 0  1.06 0.02 0  1.08 0.02 0  1.1 0.02 0  1.12 0.02 0  1.14 0.02 0  1.16 0.02 0  1.18 0.02 0  1.2 0.02 0  1.22 0.02 0  1.24 0.02 0  1.26 0.02 0  1.28 0.02 0  1.3 0.02 0  1.32 0.02 0  1.34 0.02 0  1.36 0.02 0  1.38 0.02 0  1.4 0.02 0  1.42 0.02 0  1.44 0.02 0  1.46 0.02 0  1.48 0.02 0  1.5 0.02 0  1.52 0.02 0  1.54 0.02 0  1.56 0.02 0  1.58 0.02 0  1.6 0.02 0  1.62 0.02 0  1.64 0.02 0  1.66 0.02 0  1.68 0.02 0  1.7 0.02 0  1.72 0.02 0  1.74 0.02 0  1.76 0.02 0  1.78 0.02 0  1.8 0.02 0  1.82 0.02 0  1.84 0.02 0  1.86 0.02 0  1.88 0.02 0  1.9 0.02 0  1.92 0.02 0  1.94 0.02 0  1.96 0.02 0  1.98 0.02 0  2 0.02 0  0 0.04 0  0.02 0.04 0  0.04 0.04 0  0.06 0.04 0  0.08 0.04 0  0.1 0.04 0  0.12 0.04 0  0.14 0.04 0  0.16 0.04 0  0.18 0.04 0  0.2 0.04 0  0.22 0.04 0  0.24 0.04 0  0.26 0.04 0  0.28 0.04 0  0.3 0.04 0  0.32 0.04 0  0.34 0.04 0  0.36 0.04 0  0.38 0.04 0  0.4 0.04 0  0.42 0.04 0  0.44 0.04 0  0.46 0.04 0  0.48 0.04 0  0.5 0.04 0  0.52 0.04 0  0.54 0.04 0  0.5600000000000001 0.04 0  0.58 0.04 0  0.6 0.04 0  0.62 0.04 0  0.64 0.04 0  0.66 0.04 0  0.68 0.04 0  0.7 0.04 0  0.72 0.04 0  0.74 0.04 0  0.76 0.04 0  0.78 0.04 0  0.8 0.04 0  0.82 0.04 0  0.84 0.04 0  0.86 0.04 0  0.88 0.04 0  0.9 0.04 0  0.92 0.04 0  0.9399999999999999 0.04 0  0.96 0.04 0  0.98 0.04 0  1 0.04 0  1.02 0.04 0  1.04 0.04 0  1.06 0.04 0  1.08 0.04 0  1.1 0.04 0  1.12 0.04 0  1.14 0.04 0  1.16 0.04 0  1.18 0.04 0  1.2 0.04 0  1.22 0.04 0  1.24 0.04 0  1.26 0.04 0  1.28 0.04 0  1.3 0.04 0  1.32 0.04 0  1.34 0.04 0  1.36 0.04 0  1.38 0.04 0  1.4 0.04 0  1.42 0.04 0  1.44 0.04 0  1.46 0.04 0  1.48 0.04 0  1.5 0.04 0  1.52 0.04 0  1.54 0.04 0  1.56 0.04 0  1.58 0.04 0  1.6 0.04 0  1.62 0.04 0  1.64 0.04 0  1.66 0.04 0  1.68 0.04 0  1.7 0.04 0  1.72 0.04 0  1.74 0.04 0  1.76 0.04 0  1.78 0.04 0  1.8 0.04 0  1.82 0.04 0  1.84 0.04 0  1.86 0.04 0  1.88 0.04 0  1.9 0.04 0  1.92 0.04 0  1.94 0.04 0  1.96 0.04 0  1.98 0.04 0  2 0.04 0  0 0.06 0  0.02 0.06 0  0.04 0.06 0  0.06 0.06 0  0.08 0.06 0  0.1 0.06 0  0.12 0.06 0  0.14 0.06 0  0.16 0.06 0  0.18 0.06 0  0.2 0.06 0  0.22 0.06 0  0.24 0.06 0  0.26 0.06 0  0.28 0.06 0  0.3 0.06 0  0.32 0.06 0  0.34 0.06 0  0.36 0.06 0  0.38 0.06 0  0.4 0.06 0  0.42 0.06 0  0.44 0.06 0  0.46 0.06 0  0.48 0.06 0  0.5 0.06 0  0.52 0.06 0  0.54 0.06 0  0.5600000000000001 0.06 0  0.58 0.06 0  0.6 0.06 0  0.62 0.06 0  0.64 0.06 0  0.66 0.06 0  0.68 0.06 0  0.7 0.06 0  0.72 0.06 0  0.74 0.06 0  0.76 0.06 0  0.78 0.06 0  0.8 0.06 0  0.82 0.06 0  0.84 0.06 0  0.86 0.06 0  0.88 0.06 0  0.9 0.06 0  0.92 0.06 0  0.9399999999999999 0.06 0  0.96 0.06 0  0.98 0.06 0  1 0.06 0  1.02 0.06 0  1.04 0.06 0  1.06 0.06 0  1.08 0.06 0  1.1 0.06 0  1.12 0.06 0  1.14 0.06 0  1.16 0.06 0  1.18 0.06 0  1.2 0.06 0  1.22 0.06 0  1.24 0.06 0  1.26 0.06 0  1.28 0.06 0  1.3 0.06 0  1.32 0.06 0  1.34 0.06 0  1.36 0.06 0  1.38 0.06 0  1.4 0.06 0  1.42 0.06 0  1.44 0.06 0  1.46 0.06 0  1.48 0.06 0  1.5 0.06 0  1.52 0.06 0  1.54 0.06 0  1.56 0.06 0  1.58 0.06 0  1.6 0.06 0  1.62 0.06 0  1.64 0.06 0  1.66 0.06 0  1.68 0.06 0  1.7 0.06 0  1.72 0.06 0  1.74 0.06 0  1.76 0.06 0  1.78 0.06 0  1.8 0.06 0  1.82 0.06 0  1.84 0.06 0  1.86 0.06 0  1.88 0.06 0  1.9 0.06 0  1.92 0.06 0  1.94 0.06 0  1.96 0.06 0  1.98 0.06 0  2 0.06 0  0 0.08 0  0.02 0.08 0  0.04 0.08 0  0.06 0.08 0  0.08 0.08 0  0.1 0.08 0  0.12 0.08 0  0.14 0.08 0  0.16 0.08 0  0.18 0.08 0  0.2 0.08 0  0.22 0.08 0  0.24 0.08 0  0.26 0.08 0  0.28 0.08 0  0.3 0.08 0  0.32 0.08 0  0.34 0.08 0  0.36 0.08 0  0.38 0.08 0  0.4 0.08 0  0.42 0.08 0  0.44 0.08 0  0.46 0.08 0  0.48 0.08 0  0.5 0.08 0  0.52 0.08 0  0.54 0.08 0  0.5600000000000001 0.08 0  0.58 0.08 0  0.6 0.08 0  0.62 0.08 0  0.64 0.08 0  0.66 0.08 0  0.68 0.08 0  0.7 0.08 0  0.72 0.08 0  0.74 0.08 0  0.76 0.08 0  0.78 0.08 0  0.8 0.08 0  0.82 0.08 0  0.84 0.08 0  0.86 0.08 0  0.88 0.08 0  0.9 0.08 0  0.92 0.08 0  0.9399999999999999 0.08 0  0.96 0.08 0  0.98 0.08 0  1 0.08 0  1.02 0.08 0  1.04 0.08 0  1.06 0.08 0  1.08 0.08 0  1.1 0.08 0  1.12 0.08 0  1.14 0.08 0  1.16 0.08 0  1.18 0.08 0  1.2 0.08 0  1.22 0.08 0  1.24 0.08 0  1.26 0.08 0  1.28 0.08 0  1.3 0.08 0  1.32 0.08 0  1.34 0.08 0  1.36 0.08 0  1.38 0.08 0  1.4 0.08 0  1.42 0.08 0  1.44 0.08 0  1.46 0.08 0  1.48 0.08 0  1.5 0.08 0  1.52 0.08 0  1.54 0.08 0  1.56 0.08 0  1.58 0.08 0  1.6 0.08 0  1.62 0.08 0  1.64 0.08 0  1.66 0.08 0  1.68 0.08 0  1.7 0.08 0  1.72 0.08 0  1.74 0.08 0  1.76 0.08 0  1.78 0.08 0  1.8 0.08 0  1.82 0.08 0  1.84 0.08 0  1.86 0.08 0  1.88 0.08 0  1.9 0.08 0  1.92 0.08 0  1.94 0.08 0  1.96 0.08 0  1.98 0.08 0  2 0.08 0  0 0.1 0  0.02 0.1 0  0.04 0.1 0  0.06 0.1 0  0.08 0.1 0  0.1 0.1 0  0.12 0.1 0  0.14 0.1 0  0.16 0.1 0  0.18 0.1 0  0.2 0.1 0  0.22 0.1 0  0.24 0.1 0  0.26 0.1 0  0.28 0.1 0  0.3 0.1 0  0.32 0.1 0  0.34 0.1 0  0.36 0.1 0  0.38 0.1 0  0.4 0.1 0  0.42 0.1 0  0.44 0.1 0  0.46 0.1 0  0.48 0.1 0  0.5 0.1 0  0.52 0.1 0  0.54 0.1 0  0.5600000000000001 0.1 0  0.58 0.1 0  0.6 0.1 0  0.62 0.1 0  0.64 0.1 0  0.66 0.1 0  0.68 0.1 0  0.7 0.1 0  0.72 0.1 0  0.74 0.1 0  0.76 0.1 0  0.78 0.1 0  0.8 0.1 0  0.82 0.1 0  0.84 0.1 0  0.86 0.1 0  0.88 0.1 0  0.9 0.1 0  0.92 0.1 0  0.9399999999999999 0.1 0  0.96 0.1 0  0.98 0.1 0  1 0.1 0  1.02 0.1 0  1.04 0.1 0  1.06 0.1 0  1.08 0.1 0  1.1 0.1 0  1.12 0.1 0  1.14 0.1 0  1.16 0.1 0  1.18 0.1 0  1.2 0.1 0  1.22 0.1 0  1.24 0.1 0  1.26 0.1 0  1.28 0.1 0  1.3 0.1 0  1.32 0.1 0  1.34 0.1 0  1.36 0.1 0  1.38 0.1 0  1.4 0.1 0  1.42 0.1 0  1.44 0.1 0  1.46 0.1 0  1.48 0.1 0  1.5 0.1 0  1.52 0.1 0  1.54 0.1 0  1.56 0.1 0  1.58 0.1 0  1.6 0.1 0  1.62 0.1 0  1.64 0.1 0  1.66 0.1 0  1.68 0.1 0  1.7 0.1 0  1.72 0.1 0  1.74 0.1 0  1.76 0.1 0  1.78 0.1 0  1.8 0.1 0  1.82 0.1 0  1.84 0.1 0  1.86 0.1 0  1.88 0.1 0  1.9 0.1 0  1.92 0.1 0  1.94 0.1 0  1.96 0.1 0  1.98 0.1 0  2 0.1 0  0 0.12 0  0.02 0.12 0  0.04 0.12 0  0.06 0.12 0  0.08 0.12 0  0.1 0.12 0  0.12 0.12 0  0.14 0.12 0  0.16 0.12 0  0.18 0.12 0  0.2 0.12 0  0.22 0.12 0  0.24 0.12 0  0.26 0.12 0  0.28 0.12 0  0.3 0.12 0  0.32 0.12 0  0.34 0.12 0  0.36 0.12 0  0.38 0.12 0  0.4 0.12 0  0.42 0.12 0  0.44 0.12 0  0.46 0.12 0  0.48 0.12 0  0.5 0.12 0  0.52 0.12 0  0.54 0.12 0  0.5600000000000001 0.12 0  0.58 0.12 0  0.6 0.12 0  0.62 0.12 0  0.64 0.12 0  0.66 0.12 0  0.68 0.12 0  0.7 0.12 0  0.72 0.12 0  0.74 0.12 0  0.76 0.12 0  0.78 0.12 0  0.8 0.12 0  0.82 0.12 0  0.84 0.12 0  0.86 0.12 0  0.88 0.12 0  0.9 0.12 0  0.92 0.12 0  0.9399999999999999 0.12 0  0.96 0.12 0  0.98 0.12 0  1 0.12 0  1.02 0.12 0  1.04 0.12 0  1.06 0.12 0  1.08 0.12 0  1.1 0.12 0  1.12 0.12 0  1.14 0.12 0  1.16 0.12 0  1.18 0.12 0  1.2 0.12 0  1.22 0.12 0  1.24 0.12 0  1.26 0.12 0  1.28 0.12 0  1.3 0.12 0  1.32 0.12 0  1.34 0.12 0  1.36 0.12 0  1.38 0.12 0  1.4 0.12 0  1.42 0.12 0  1.44 0.12 0  1.46 0.12 0  1.48 0.12 0  1.5 0.12 0  1.52 0.12 0  1.54 0.12 0  1.56 0.12 0  1.58 0.12 0  1.6 0.12 0  1.62 0.12 0  1.64 0.12 0  1.66 0.12 0  1.68 0.12 0  1.7 0.12 0  1.72 0.12 0  1.74 0.12 0  1.76 0.12 0  1.78 0.12 0  1.8 0.12 0  1.82 0.12 0  1.84 0.12 0  1.86 0.12 0  1.88 0.12 0  1.9 0.12 0  1.92 0.12 0  1.94 0.12 0  1.96 0.12 0  1.98 0.12 0  2 0.12 0  0 0.14 0  0.02 0.14 0  0.04 0.14 0  0.06 0.14 0  0.08 0.14 0  0.1 0.14 0  0.12 0.14 0  0.14 0.14 0  0.16 0.14 0  0.18 0.14 0  0.2 0.14 0  0.22 0.14 0  0.24 0.14 0  0.26 0.14 0  0.28 0.14 0  0.3 0.14 0  0.32 0.14 0  0.34 0.14 0  0.36 0.14 0  0.38 0.14 0  0.4 0.14 0  0.42 0.14 0  0.44 0.14 0  0.46 0.14 0  0.48 0.14 0  0.5 0.14 0  0.52 0.14 0  0.54 0.14 0  0.5600000000000001 0.14 0  0.58 0.14 0  0.6 0.14 0  0.62 0.14 0  0.64 0.14 0  0.66 0.14 0  0.68 0.14 0  0.7 0.14 0  0.72 0.14 0  0.74 0.14 0  0.76 0.14 0  0.78 0.14 0  0.8 0.14 0  0.82 0.14 0  0.84 0.14 0  0.86 0.14 0  0.88 0.14 0  0.9 0.14 0  0.92 0.14 0  0.9399999999999999 0.14 0  0.96 0.14 0  0.98 0.14 0  1 0.14 0  1.02 0.14 0  1.04 0.14 0  1.06 0.14 0  1.08 0.14 0  1.1 0.14 0  1.12 0.14 0  1.14 0.14 0  1.16 0.14 0  1.18 0.14 0  1.2 0.14 0  1.22 0.14 0  1.24 0.14 0  1.26 0.14 0  1.28 0.14 0  1.3 0.14 0  1.32 0.14 0  1.34 0.14 0  1.36 0.14 0  1.38 0.14 0  1.4 0.14 0  1.42 0.14 0  1.44 0.14 0  1.46 0.14 0  1.48 0.14 0  1
[...]
<PointData  Scalars="sols[i]"> 
<DataArray  type="Float64"  Name="sols[i]"  format="ascii">1.7888856745572100e-03  1.1932964678210529e-03  1.1932964678210533e-03  1.1932964678210533e-03  1.1932964678210544e-03  1.1932964678210561e-03  1.1932964678210577e-03  1.1932964678210622e-03  1.1932964678210685e-03  1.1932964678210770e-03  1.1932964678210915e-03  1.1932964678211140e-03  1.1932964678211463e-03  1.1932964678211956e-03  1.1932964678212702e-03  1.1932964678213736e-03  1.1932964678215210e-03  1.1932964678217301e-03  1.1932964678220141e-03  1.1932964678223999e-03  1.1932964678229171e-03  1.1932964678235925e-03  1.1932964678244651e-03  1.1932964678255749e-03  1.1932964678269562e-03  1.1932964678286492e-03  1.1932964678306910e-03  1.1932964678331127e-03  1.1932964678359457e-03  1.1932964678392020e-03  1.1932964678429115e-03  1.1932964678470974e-03  1.1932964678517844e-03  1.1932964678570102e-03  1.1932964678628259e-03  1.1932964678692834e-03  1.1932964678764712e-03  1.1932964678844867e-03  1.1932964678934418e-03  1.1932964679034635e-03  1.1932964679146961e-03  1.1932964679272804e-03  1.1932964679413889e-03  1.1932964679572100e-03  1.1932964679749758e-03  1.1932964679950053e-03  1.1932964680177855e-03  1.1932964680440702e-03  1.1932964680750903e-03  1.1932964681127668e-03  1.1932964681599938e-03  1.1932964682209184e-03  1.1932964683011144e-03  1.1932964684075093e-03  1.1932964685478745e-03  1.1932964687296982e-03  1.1932964689583873e-03  1.1932964692360796e-03  1.1932964695544224e-03  1.1932964698999830e-03  1.1932964702491204e-03  1.1932964705711003e-03  1.1932964708322856e-03  1.1932964710019644e-03  1.1932964710584251e-03  1.1932964709935614e-03  1.1932964708145672e-03  1.1932964705422175e-03  1.1932964702063397e-03  1.1932964698386857e-03  1.1932964694722956e-03  1.1932964691302311e-03  1.1932964688285697e-03  1.1932964685752753e-03  1.1932964683715865e-03  1.1932964682140081e-03  1.1932964680963266e-03  1.1932964680112720e-03  1.1932964679516847e-03  1.1932964679111963e-03  1.1932964678845256e-03  1.1932964678675229e-03  1.1932964678570213e-03  1.1932964678507268e-03  1.1932964678470028e-03  1.1932964678447087e-03  1.1932964678430886e-03  1.1932964678416727e-03  1.1932964678401975e-03  1.1932964678385521e-03  1.1932964678367272e-03  1.1932964678347778e-03  1.1932964678327909e-03  1.1932964678308699e-03  1.1932964678290784e-03  1.1932964678274985e-03  1.1932964678261842e-03  1.1932964678251644e-03  1.1932964678244688e-03  1.1932964678241322e-03  3.5711282664303351e-03  1.1932964678210529e-03  5.9696386698954434e-04  5.9696386698954455e-04  5.9696386698954477e-04  5.9696386698954520e-04  5.9696386698954640e-04  5.9696386698954748e-04  5.9696386698954986e-04  5.9696386698955398e-04  5.9696386698955941e-04  5.9696386698956840e-04  5.9696386698958272e-04  5.9696386698960332e-04  5.9696386698963422e-04  5.9696386698968084e-04  5.9696386698974730e-04  5.9696386698984130e-04  5.9696386698997498e-04  5.9696386699015908e-04  5.9696386699040866e-04  5.9696386699074498e-04  5.9696386699118734e-04  5.9696386699175990e-04  5.9696386699249076e-04  5.9696386699340529e-04  5.9696386699452950e-04  5.9696386699588952e-04  5.9696386699750650e-04  5.9696386699940060e-04  5.9696386700158440e-04  5.9696386700407189e-04  5.9696386700688062e-04  5.9696386701002654e-04  5.9696386701353253e-04  5.9696386701743186e-04  5.9696386702176335e-04  5.9696386702658036e-04  5.9696386703195182e-04  5.9696386703795277e-04  5.9696386704466951e-04  5.9696386705219886e-04  5.9696386706063872e-04  5.9696386707009871e-04  5.9696386708070373e-04  5.9696386709259743e-04  5.9696386710597518e-04  5.9696386712113016e-04  5.9696386713852445e-04  5.9696386715891482e-04  5.9696386718351559e-04  5.9696386721419233e-04  5.9696386725368211e-04  5.9696386730575266e-04  5.9696386737520849e-04  5.9696386746760442e-04  5.9696386758851811e-04  5.9696386774230807e-04  5.9696386793082817e-04  5.9696386814988222e-04  5.9696386839031923e-04  5.9696386863588766e-04  5.9696386886486010e-04  5.9696386905297091e-04  5.9696386917767184e-04  5.9696386922268780e-04  5.9696386918155556e-04  5.9696386905901632e-04  5.9696386886981707e-04  5.9696386863537136e-04  5.9696386837895517e-04  5.9696386812333813e-04  5.9696386788533743e-04  5.9696386767621294e-04  5.9696386750137428e-04  5.9696386736144455e-04  5.9696386725374077e-04  5.9696386717373174e-04  5.9696386711622176e-04  5.9696386707616146e-04  5.9696386704910650e-04  5.9696386703140625e-04  5.9696386702021154e-04  5.9696386701337250e-04  5.9696386700932723e-04  5.9696386700697462e-04  5.9696386700554738e-04  5.9696386700453972e-04  5.9696386700363723e-04  5.9696386700266741e-04  5.9696386700155968e-04  5.9696386700031372e-04  5.9696386699897212e-04  5.9696386699759909e-04  5.9696386699626606e-04  5.9696386699502736e-04  5.9696386699393080e-04  5.9696386699301649e-04  5.9696386699230309e-04  5.9696386699180620e-04  5.9696386699154100e-04  1.1932964678246297e-03  1.1932964678210535e-03  5.9696386698954455e-04  5.9696386698954499e-04  5.9696386698954542e-04  5.9696386698954618e-04  5.9696386698954791e-04  5.9696386698955030e-04  5.9696386698955453e-04  5.9696386698956157e-04  5.9696386698957166e-04  5.9696386698958835e-04  5.9696386698961427e-04  5.9696386698965286e-04  5.9696386698971098e-04  5.9696386698979815e-04  5.9696386698992381e-04  5.9696386699010357e-04  5.9696386699035922e-04  5.9696386699071354e-04  5.9696386699119774e-04  5.9696386699185173e-04  5.9696386699271682e-04  5.9696386699384200e-04  5.9696386699528323e-04  5.9696386699709288e-04  5.9696386699932449e-04  5.9696386700202860e-04  5.9696386700524792e-04  5.9696386700901921e-04  5.9696386701336849e-04  5.9696386701832015e-04  5.9696386702390346e-04  5.9696386703014814e-04  5.9696386703709820e-04  5.9696386704481685e-04  5.9696386705338433e-04  5.9696386706290915e-04  5.9696386707352696e-04  5.9696386708539139e-04  5.9696386709867742e-04  5.9696386711357652e-04  5.9696386713028635e-04  5.9696386714901898e-04  5.9696386717000393e-04  5.9696386719350033e-04  5.9696386721984666e-04  5.9696386724954740e-04  5.9696386728341419e-04  5.9696386732281345e-04  5.9696386737000671e-04  5.9696386742858810e-04  5.9696386750398992e-04  5.9696386760391303e-04  5.9696386773846642e-04  5.9696386791969038e-04  5.9696386816053245e-04  5.9696386847046280e-04  5.9696386885420500e-04  5.9696386930614990e-04  5.9696386980550859e-04  5.9696387031809477e-04  5.9696387079547907e-04  5.9696387118470949e-04  5.9696387143646818e-04  5.9696387151603116e-04  5.9696387141125766e-04  5.9696387113489973e-04  5.9696387072285010e-04  5.9696387022283601e-04  5.9696386968758166e-04  5.9696386916277327e-04  5.9696386868251768e-04  5.9696386826856289e-04  5.9696386792880082e-04  5.9696386766186472e-04  5.9696386746017687e-04  5.9696386731310767e-04  5.9696386720935798e-04  5.9696386713846471e-04  5.9696386709155399e-04  5.9696386706155130e-04  5.9696386704307411e-04  5.9696386703215402e-04  5.9696386702595423e-04  5.9696386702249834e-04  5.9696386702043434e-04  5.9696386701888415e-04  5.9696386701731986e-04  5.9696386701547140e-04  5.9696386701325616e-04  5.9696386701071783e-04  5.9696386700797436e-04  5.9696386700517550e-04  5.9696386700247366e-04  5.9696386699998770e-04  5.9696386699781127e-04  5.9696386699601095e-04  5.9696386699461862e-04  5.9696386699365530e-04  5.9696386699314378e-04  1.1932964678272391e-03  1.1932964678210540e-03  5.9696386698954499e-04  5.9696386698954553e-04  5.9696386698954672e-04  5.9696386698954835e-04  5.9696386698955160e-04  5.9696386698955637e-04  5.9696386698956450e-04  5.9696386698957838e-04  5.9696386698959920e-04  5.9696386698963270e-04  5.9696386698968561e-04  5.9696386698976530e-04  5.9696386698988629e-04  5.9696386699006735e-04  5.9696386699033223e-04  5.9696386699071332e-04  5.9696386699125662e-04  5.9696386699201545e-04  5.9696386699305899e-04  5.9696386699447334e-04  5.9696386699635519e-04  5.9696386699881557e-04  5.9696386700197818e-04  5.9696386700596523e-04  5.9696386701089802e-04  5.9696386701688878e-04  5.9696386702403205e-04  5.9696386703240523e-04  5.9696386704206515e-04  5.9696386705306004e-04  5.9696386706544315e-04  5.9696386707927627e-04  5.9696386709465188e-04  5.9696386711170562e-04  5.9696386713061985e-04  5.9696386715163690e-04  5.9696386717505892e-04  5.9696386720123492e-04  5.9696386723055890e-04  5.9696386726345836e-04  5.9696386730037686e-04  5.9696386734177430e-04  5.9696386738813045e-04  5.9696386743996550e-04  5.9696386749792804e-04  5.9696386756296477e-04  5.9696386763662926e-04  5.9696386772160957e-04  5.9696386782251269e-04  5.9696386794692185e-04  5.9696386810667503e-04  5.9696386831907956e-04  5.9696386860798073e-04  5.9696386900130510e-04  5.9696386953093721e-04  5.9696387022345259e-04  5.9696387109238686e-04  5.9696387212670717e-04  5.9696387328121020e-04  5.9696387447230614e-04  5.9696387558562912e-04  5.9696387648988289e-04  5.9696387706502070e-04  5.9696387722756787e-04  5.9696387695088587e-04  5.9696387627263773e-04  5.9696387528330942e-04  5.9696387410416909e-04  5.9696387286081634e-04  5.9696387166146495e-04  5.9696387058223526e-04  5.9696386966693942e-04  5.9696386892790364e-04  5.9696386835747972e-04  5.9696386793386686e-04  5.9696386763029947e-04  5.9696386741989974e-04  5.9696386727874464e-04  5.9696386718717303e-04  5.9696386712992477e-04  5.9696386709564414e-04  5.9696386707612601e-04  5.9696386706558594e-04  5.9696386706003374e-04  5.9696386705677875e-04  5.9696386705409762e-04  5.9696386705098661e-04  5.9696386704697724e-04  5.9696386704198828e-04  5.9696386703619842e-04  5.9696386702993195e-04  5.9696386702356465e-04  5.9696386701745376e-04  5.9696386701188107e-04  5.9696386700704759e-04  5.9696386700307952e-04  5.9696386700003258e-04  5.9696386699793476e-04  5.9696386699681998e-04  1.1932964678334046e-03  1.1932964678210557e-03  5.9696386698954596e-04  5.9696386698954694e-04  5.9696386698954900e-04  5.9696386698955247e-04  5.9696386698955865e-04  5.9696386698956851e-04  5.9696386698958521e-04  5.9696386698961286e-04  5.9696386698965644e-04  5.9696386698972626e-04  5.9696386698983642e-04  5.9696386699000566e-04  5.9696386699026327e-04  5.9696386699065076e-04  5.9696386699122138e-04  5.9696386699204895e-04  5.9696386699323355e-04  5.9696386699489856e-04  5.9696386699720108e-04  5.9696386700033638e-04  5.9696386700452909e-04  5.9696386701003825e-04  5.9696386701714758e-04  5.9696386702614472e-04  5.9696386703731222e-04  5.9696386705090714e-04  5.9696386706714426e-04  5.9696386708619272e-04  5.9696386710817297e-04  5.9696386713318237e-04  5.9696386716132034e-04  5.9696386719271482e-04  5.9696386722756379e-04  5.9696386726616768e-04  5.9696386730894531e-04  5.9696386735645266e-04  5.9696386740938385e-04  5.9696386746854767e-04  5.9696386753485368e-04  5.9696386760928471e-04  5.9696386769285794e-04  5.9696386778660749e-04  5.9696386789157474e-04  5.9696386800883868e-04  5.9696386813966828e-04  5.9696386828585874e-04  5.9696386845038934e-04  5.9696386863858017e-04  5.9696386885989847e-04  5.9696386913094695e-04  5.9696386947699035e-04  5.9696386993788588e-04  5.9696387056909495e-04  5.9696387144000853e-04  5.9696387262904850e-04  5.9696387420670241e-04  5.9696387621532517e-04  5.9696387863538574e-04  5.9696388136346468e-04  5.9696388419836681e-04  5.9696388685513864e-04  5.9696388900710203e-04  5.9696389035399100e-04  5.9696389068985656e-04  5.9696388995743299e-04  5.9696388826231293e-04  5.9696388584197621e-04  5.9696388300454193e-04  5.9696388005941493e-04  5.9696387726247560e-04  5.9696387478766705e-04  5.9696387272245067e-04  5.9696387108356395e-04  5.9696386983893672e-04  5.9696386893043460e-04  5.9696386829031774e-04  5.9696386785420500e-04  5.9696386756680393e-04  5.9696386738398066e-04  5.9696386727231651e-04  5.9696386720745434e-04  5.9696386717209308e-04  5.9696386715418239e-04  5.9696386714547603e-04  5.9696386714046647e-04  5.9696386713567419e-04  5.9696386712914176e-04  5.9696386712005810e-04  5.9696386710844391e-04  5.9696386709486991e-04  5.9696386708020044e-04  5.9696386706537517e-04  5.9696386705124877e-04  5.9696386703847850e-04  5.9696386702750486e-04  5.9696386701857016e-04  5.9696386701175964e-04  5.9696386700709280e-04  5.9696386700460748e-04  1.1932964678464993e-03  1.1932964678210598e-03  5.9696386698954813e-04  5.9696386698955019e-04  5.9696386698955409e-04  5.9696386698956092e-04  5.9696386698957307e-04  5.9696386698959323e-04  5.9696386698962739e-04  5.9696386698968366e-04  5.9696386698977429e-04  5.9696386698992055e-04  5.9696386699015192e-04  5.9696386699051079e-04  5.9696386699106157e-04  5.9696386699189424e-04  5.9696386699312947e-04  5.9696386699493336e-04  5.9696386699752840e-04  5.9696386700119712e-04  5.9696386700629927e-04  5.9696386701328012e-04  5.9696386702266400e-04  5.9696386703505350e-04  5.9696386705110989e-04  5.9696386707151175e-04  5.9696386709691960e-04  5.9696386712792854e-04  5.9696386716502820e-04  5.9696386720858950e-04  5.9696386725886644e-04  5.9696386731604521e-04  5.9696386738031021e-04  5.9696386745191959e-04  5.9696386753129837e-04  5.9696386761911593e-04  5.9696386771633352e-04  5.9696386782423733e-04  5.9696386794443404e-04  5.9696386807880680e-04  5.9696386822946960e-04  5.9696386839869784e-04  5.9696386858884164e-04  5.9696386880225599e-04  5.9696386904124256e-04  5.9696386930807176e-04  5.9696386960522534e-04  5.9696386993604610e-04  5.9696387030610479e-04  5.9696387072613892e-04  5.9696387121446000e-04  5.9696387180562720e-04  5.9696387255728223e-04  5.9696387355840264e-04  5.9696387493839793e-04  5.9696387686599686e-04  5.9696387953799999e-04  5.9696388314160243e-04  5.9696388779832926e-04  5.9696389348567276e-04  5.9696389996664238e-04  5.9696390675174351e-04  5.9696391313157583e-04  5.9696391828701072e-04  5.9696392145881815e-04  5.9696392213771064e-04  5.9696392020134540e-04  5.9696391594599033e-04  5.9696390999796896e-04  5.9696390314413613e-04  5.9696389614737923e-04  5.9696388961439511e-04  5.9696388393117104e-04  5.9696387927056483e-04  5.9696387563608257e-04  5.9696387292406078e-04  5.9696387097811433e-04  5.9696386963009878e-04  5.9696386872789761e-04  5.9696386814413964e-04  5.9696386778034622e-04  5.9696386756373531e-04  5.9696386744230413e-04  5.9696386737968451e-04  5.9696386735079334e-04  5.9696386733856289e-04  5.9696386733166867e-04  5.9696386732305175e-04  5.9696386730890346e-04  5.9696386728789682e-04  5.9696386726051606e-04  5.9696386722842476e-04  5.9696386719387232e-04  5.9696386715918934e-04  5.9696386712641402e-04  5.9696386709706228e-04  5.9696386707208432e-04  5.9696386705193150e-04  5.9696386703669293e-04  5.9696386702630616e-04  5.9696386702076350e-04  1.1932964678736107e-03  1.1932964678210648e-03  5.9696386698955149e-04  5.9696386698955539e-04  5.9696386698956309e-04  5.9696386698957675e-04  5.9696386698960104e-04  5.9696386698964181e-04  5.9696386698971087e-04  5.9696386698982623e-04  5.9696386699001401e-04  5.9696386699031846e-04  5.9696386699080385e-04  5.9696386699156453e-04  5.9696386699274024e-04  5.9696386699452863e-04  5.9696386699720108e-04  5.9696386700112979e-04  5.9696386700681329e-04  5.9696386701489493e-04  5.9696386702619752e-04  5.9696386704174184e-04  5.9696386706274587e-04  5.9696386709061648e-04  5.9696386712690169e-04  5.9696386717320059e-04  5.9696386723106338e-04  5.9696386730187447e-04  5.9696386738675264e-04  5.9696386748650965e-04  5.9696386760166645e-04  5.9696386773256185e-04  5.9696386787951765e-04  5.9696386804303789e-04  5.9696386822402896e-04  5.9696386842398577e-04  5.9696386864511585e-04  5.9696386889039968e-04  5.9696386916357168e-04  5.9696386946902233e-04  5.9696386981167272e-04  5.9696387019680908e-04  5.9696387062988074e-04  5.9696387111672145e-04  5.9696387166163615e-04  5.9696387226988766e-04  5.9696387294631956e-04  5.9696387369696812e-04  5.9696387453181691e-04  5.9696387547058681e-04  5.9696387655024824e-04  5.9696387784236482e-04  5.9696387947059113e-04  5.9696388163524706e-04  5.9696388463738737e-04  5.9696388888493858e-04  5.9696389486820942e-04  5.9696390308190336e-04  5.9696391387553790e-04  5.9696392725456355e-04  5.9696394268172592e-04  5.9696395896876718e-04  5.9696397434422883e-04  5.9696398673709540e-04  5.9696399422620771e-04  5.9696399554135286e-04  5.9696399042880011e-04  5.9696397972281985e-04  5.9696396508174591e-04  5.9696394851389736e-04  5.9696393190019302e-04  5.9696391666350080e-04  5.9696390365024919e-04  5.9696389317350689e-04  5.9696388515306006e-04  5.9696387927634428e-04  5.9696387513430860e-04  5.9696387231751677e-04  5.9696387046519531e-04  5.9696386928976327e-04  5.9696386857330665e-04  5.9696386815891113e-04  5.9696386793618120e-04  5.9696386783011349e-04  5.9696386778834677e-04  5.9696386777563439e-04  5.9696386776867565e-04  5.9696386775314522e-04  5.9696386772170053e-04  5.9696386767242810e-04  5.9696386760739624e-04  5.9696386753121423e-04  5.9696386744964743e-04  5.9696386736842627e-04  5.9696386729281054e-04  5.9696386722539994e-04  5.9696386716863079e-04  5.9696386712328187e-04  5.9696386708929321e-04  5.9696386706626693e-04  5.9696386705396373e-04  1.1932964679291470e-03  1.1932964678210776e-03  5.9696386698955843e-04  5.9696386698956591e-04  5.9696386698958098e-04  5.9696386698960809e-04  5.9696386698965612e-04  5.9696386698973830e-04  5.9696386698987816e-04  5.9696386699011267e-04  5.9696386699049973e-04  5.9696386699113150e-04  5.9696386699214729e-04  5.9696386699375386e-04  5.9696386699625598e-04  5.9696386700008929e-04  5.9696386700586006e-04  5.9696386701440097e-04  5.9696386702683059e-04  5.9696386704461042e-04  5.9696386706961679e-04  5.9696386710419275e-04  5.9696386715116538e-04  5.9696386721381947e-04  5.9696386729578830e-04  5.9696386740084565e-04  5.9696386753264094e-04  5.9696386769440325e-04  5.9696386788869076e-04  5.9696386811727517e-04  5.9696386838119242e-04  5.9696386868100056e-04  5.9696386901762300e-04  5.9696386939114300e-04  5.9696386980390278e-04  5.9696387025924590e-04  5.9696387076224242e-04  5.9696387131981474e-04  5.9696387194066241e-04  5.9696387263502798e-04  5.9696387341437690e-04  5.9696387429100900e-04  5.9696387527759449e-04  5.9696387638705944e-04  5.9696387763026289e-04  5.9696387901809502e-04  5.9696388056002284e-04  5.9696388226692645e-04  5.9696388415474166e-04  5.9696388625862264e-04  5.9696388865020599e-04  5.9696389147286140e-04  5.9696389498962543e-04  5.9696389964512548e-04  5.9696390613260672e-04  5.9696391543057937e-04  5.9696392876263521e-04  5.9696394742126248e-04  5.9696397240349014e-04  5.9696400388378236e-04  5.9696404066651254e-04  5.9696407986108743e-04  5.9696411703239708e-04  5.9696414692257769e-04  5.9696416464254522e-04  5.9696416700736482e-04  5.9696415352229976e-04  5.9696412653373299e-04  5.9696409044554262e-04  5.9696405039577616e-04  5.9696401099779562e-04  5.9696397556302202e-04  5.9696394588657279e-04  5.9696392245956386e-04  5.9696390487245577e-04  5.9696389223176660e-04  5.9696388349023599e-04  5.9696387765426290e-04  5.9696387388999091e-04  5.9696387154846192e-04  5.9696387015589455e-04  5.9696386937710963e-04  5.9696386898295921e-04  5.9696386881618268e-04  5.9696386876982750e-04  5.9696386877121648e-04  5.9696386877232930e-04  5.9696386874406599e-04  5.9696386867246192e-04  5.9696386855555717e-04  5.9696386840023480e-04  5.9696386821888128e-04  5.9696386802609886e-04  5.9696386783587916e-04  5.9696386765960806e-04  5.9696386750505981e-04  5.9696386737636555e-04  5.9696386727509923e-04  5.9696386719961501e-04  5.9696386714882914e-04  5.9696386712168603e-04  1.1932964680420209e-03  1.1932964678211006e-03  5.9696386698957144e-04  5.9696386698958629e-04  5.9696386698961578e-04  5.9696386698966913e-04  5.9696386698976410e-04  5.9696386698992793e-04  5.9696386699020906e-04  5.9696386699068492e-04  5.9696386699147801e-04  5.9696386699278361e-04  5.9696386699490160e-04  5.9696386699828138e-04  5.9696386700358942e-04  5.9696386701178490e-04  5.9696386702421636e-04  5.9696386704274386e-04  5.9696386706987840e-04  5.9696386710892855e-04  5.9696386716416713e-04  5.9696386724097169e-04  5.96963867345