<?xml version="1.0"?>
<VTKFile type="UnstructuredGrid"  version="0.1"  >
<UnstructuredGrid>
<Piece  NumberOfPoints="5151" NumberOfCells="10000">
<Points>
<DataArray  type="Float64"  NumberOfComponents="3"  format="ascii">0 0 0  0.02 0 0  0.04 0 0  0.06 0 0  0.08 0 0  0.1 0 0  0.12 0 0  0.14 0 0  0.16 0 0  0.18 0 0  0.2 0 0  0.22 0 0  0.24 0 0  0.26 0 0  0.28 0 0  0.3 0 0  0.32 0 0  0.34 0 0  0.36 0 0  0.38 0 0  0.4 0 0  0.42 0 0  0.44 0 0  0.46 0 0  0.48 0 0  0.5 0 0  0.52 0 0  0.54 0 0  0.5600000000000001 0 0  0.58 0 0  0.6 0 0  0.62 0 0  0.64 0 0  0.66 0 0  0.68 0 0  0.7 0 0  0.72 0 0  0.74 0 0  0.76 0 0  0.78 0 0  0.8 0 0  0.82 0 0  0.84 0 0  0.86 0 0  0.88 0 0  0.9 0 0  0.92 0 0  0.9399999999999999 0 0  0.96 0 0  0.98 0 0  1 0 0  1.02 0 0  1.04 0 0  1.06 0 0  1.08 0 0  1.1 0 0  1.12 0 0  1.14 0 0  1.16 0 0  1.18 0 0  1.2 0 0  1.22 0 0  1.24 0 0  1.26 0 0  1.28 0 0  1.3 0 0  1.32 0 0  1.34 0 0  1.36 0 0  1.38 0 0  1.4 0 0  1.42 0 0  1.44 0 0  1.46 0 0  1.48 0 0  1.5 0 0  1.52 0 0  1.54 0 0  1.56 0 0  1.58 0 0  1.6 0 0  1.62 0 0  1.64 0 0  1.66 0 0  1.68 0 0  1.7 0 0  1.72 0 0  1.74 0 0  1.76 0 0  1.78 0 0  1.8 0 0  1.82 0 0  1.84 0 0  1.86 0 0  1.88 0 0  1.9 0 0  1.92 0 0  1.94 0 0  1.96 0 0  1.98 0 0  2 0 0  0 0.02 0  0.02 0.02 0  0.04 0.02 0  0.06 0.02 0  0.08 0.02 0  0.1 0.02 0  0.12 0.02 0  0.14 0.02 0  0.16 0.02 0  0.18 0.02 0  0.2 0.02 0  0.22 0.02 0  0.24 0.02 0  0.26 0.02 0  0.28 0.02 0  0.3 0.02 0  0.32 0.02 0  0.34 0.02 0  0.36 0.02 0  0.38 0.02 0  0.4 0.02 0  0.42 0.02 0  0.44 0.02 0  0.46 0.02 0  0.48 0.02 0  0.5 0.02 0  0.52 0.02 0  0.54 0.02 0  0.5600000000000001 0.02 0  0.58 0.02 0  0.6 0.02 0  0.62 0.02 0  0.64 0.02 0  0.66 0.02 0  0.68 0.02 0  0.7 0.02 0  0.72 0.02 0  0.74 0.02 0  0.76 0.02 0  0.78 0.02 0  0.8 0.02 0  0.82 0.02 0  0.84 0.02 0  0.86 0.02 0  0.88 0.02 0  0.9 0.02 0  0.92 0.02 0  0.9399999999999999 0.02 0  0.96 0.02 0  0.98 0.02 0  1 0.02 0  1.02 0.02 0  1.04 0.02 0  1.06 0.02 0  1.08 0.02 0  1.1 0.02 0  1.12 0.02 0  1.14 0.02 0  1.16 0.02 0  1.18 0.02 0  1.2 0.02 0  1.22 0.02 0  1.24 0.02 0  1.26 0.02 0  1.28 0.02 0  1.3 0.02 0  1.32 0.02 0  1.34 0.02 0  1.36 0.02 0  1.38 0.02 0  1.4 0.02 0  1.42 0.02 0  1.44 0.02 0  1.46 0.02 0  1.48 0.02 0  1.5 0.02 0  1.52 0.02 0  1.54 0.02 0  1.56 0.02 0  1.58 0.02 0  1.6 0.02 0  1.62 0.02 0  1.64 0.02 0  1.66 0.02 0  1.68 0.02 0  1.7 0.02 0  1.72 0.02 0  1.74 0.02 0  1.76 0.02 0  1.78 0.02 0  1.8 0.02 0  1.82 0.02 0  1.84 0.02 0  1.86 0.02 0  1.88 0.02 0  1.9 0.02 0  1.92 0.02 0  1.94 0.02 0  1.96 0.02 0  1.98 0.02 0  2 0.02 0  0 0.04 0  0.02 0.04 0  0.04 0.04 0  0.06 0.04 0  0.08 0.04 0  0.1 0.04 0  0.12 0.04 0  0.14 0.04 0  0.16 0.04 0  0.18 0.04 0  0.2 0.04 0  0.22 0.04 0  0.24 0.04 0  0.26 0.04 0  0.28 0.04 0  0.3 0.04 0  0.32 0.04 0  0.34 0.04 0  0.36 0.04 0  0.38 0.04 0  0.4 0.04 0  0.42 0.04 0  0.44 0.04 0  0.46 0.04 0  0.48 0.04 0  0.5 0.04 0  0.52 0.04 0  0.54 0.04 0  0.5600000000000001 0.04 0  0.58 0.04 0  0.6 0.04 0  0.62 0.04 0  0.64 0.04 0  0.66 0.04 0  0.68 0.04 0  0.7 0.04 0  0.72 0.04 0  0.74 0.04 0  0.76 0.04 0  0.78 0.04 0  0.8 0.04 0  0.82 0.04 0  0.84 0.04 0  0.86 0.04 0  0.88 0.04 0  0.9 0.04 0  0.92 0.04 0  0.9399999999999999 0.04 0  0.96 0.04 0  0.98 0.04 0  1 0.04 0  1.02 0.04 0  1.04 0.04 0  1.06 0.04 0  1.08 0.04 0  1.1 0.04 0  1.12 0.04 0  1.14 0.04 0  1.16 0.04 0  1.18 0.04 0  1.2 0.04 0  1.22 0.04 0  1.24 0.04 0  1.26 0.04 0  1.28 0.04 0  1.3 0.04 0  1.32 0.04 0  1.34 0.04 0  1.36 0.04 0  1.38 0.04 0  1.4 0.04 0  1.42 0.04 0  1.44 0.04 0  1.46 0.04 0  1.48 0.04 0  1.5 0.04 0  1.52 0.04 0  1.54 0.04 0  1.56 0.04 0  1.58 0.04 0  1.6 0.04 0  1.62 0.04 0  1.64 0.04 0  1.66 0.04 0  1.68 0.04 0  1.7 0.04 0  1.72 0.04 0  1.74 0.04 0  1.76 0.04 0  1.78 0.04 0  1.8 0.04 0  1.82 0.04 0  1.84 0.04 0  1.86 0.04 0  1.88 0.04 0  1.9 0.04 0  1.92 0.04 0  1.94 0.04 0  1.96 0.04 0  1.98 0.04 0  2 0.04 0  0 0.06 0  0.02 0.06 0  0.04 0.06 0  0.06 0.06 0  0.08 0.06 0  0.1 0.06 0  0.12 0.06 0  0.14 0.06 0  0.16 0.06 0  0.18 0.06 0  0.2 0.06 0  0.22 0.06 0  0.24 0.06 0  0.26 0.06 0  0.28 0.06 0  0.3 0.06 0  0.32 0.06 0  0.34 0.06 0  0.36 0.06 0  0.38 0.06 0  0.4 0.06 0  0.42 0.06 0  0.44 0.06 0  0.46 0.06 0  0.48 0.06 0  0.5 0.06 0  0.52 0.06 0  0.54 0.06 0  0.5600000000000001 0.06 0  0.58 0.06 0  0.6 0.06 0  0.62 0.06 0  0.64 0.06 0  0.66 0.06 0  0.68 0.06 0  0.7 0.06 0  0.72 0.06 0  0.74 0.06 0  0.76 0.06 0  0.78 0.06 0  0.8 0.06 0  0.82 0.06 0  0.84 0.06 0  0.86 0.06 0  0.88 0.06 0  0.9 0.06 0  0.92 0.06 0  0.9399999999999999 0.06 0  0.96 0.06 0  0.98 0.06 0  1 0.06 0  1.02 0.06 0  1.04 0.06 0  1.06 0.06 0  1.08 0.06 0  1.1 0.06 0  1.12 0.06 0  1.14 0.06 0  1.16 0.06 0  1.18 0.06 0  1.2 0.06 0  1.22 0.06 0  1.24 0.06 0  1.26 0.06 0  1.28 0.06 0  1.3 0.06 0  1.32 0.06 0  1.34 0.06 0  1.36 0.06 0  1.38 0.06 0  1.4 0.06 0  1.42 0.06 0  1.44 0.06 0  1.46 0.06 0  1.48 0.06 0  1.5 0.06 0  1.52 0.06 0  1.54 0.06 0  1.56 0.06 0  1.58 0.06 0  1.6 0.06 0  1.62 0.06 0  1.64 0.06 0  1.66 0.06 0  1.68 0.06 0  1.7 0.06 0  1.72 0.06 0  1.74 0.06 0  1.76 0.06 0  1.78 0.06 0  1.8 0.06 0  1.82 0.06 0  1.84 0.06 0  1.86 0.06 0  1.88 0.06 0  1.9 0.06 0  1.92 0.06 0  1.94 0.06 0  1.96 0.06 0  1.98 0.06 0  2 0.06 0  0 0.08 0  0.02 0.08 0  0.04 0.08 0  0.06 0.08 0  0.08 0.08 0  0.1 0.08 0  0.12 0.08 0  0.14 0.08 0  0.16 0.08 0  0.18 0.08 0  0.2 0.08 0  0.22 0.08 0  0.24 0.08 0  0.26 0.08 0  0.28 0.08 0  0.3 0.08 0  0.32 0.08 0  0.34 0.08 0  0.36 0.08 0  0.38 0.08 0  0.4 0.08 0  0.42 0.08 0  0.44 0.08 0  0.46 0.08 0  0.48 0.08 0  0.5 0.08 0  0.52 0.08 0  0.54 0.08 0  0.5600000000000001 0.08 0  0.58 0.08 0  0.6 0.08 0  0.62 0.08 0  0.64 0.08 0  0.66 0.08 0  0.68 0.08 0  0.7 0.08 0  0.72 0.08 0  0.74 0.08 0  0.76 0.08 0  0.78 0.08 0  0.8 0.08 0  0.82 0.08 0  0.84 0.08 0  0.86 0.08 0  0.88 0.08 0  0.9 0.08 0  0.92 0.08 0  0.9399999999999999 0.08 0  0.96 0.08 0  0.98 0.08 0  1 0.08 0  1.02 0.08 0  1.04 0.08 0  1.06 0.08 0  1.08 0.08 0  1.1 0.08 0  1.12 0.08 0  1.14 0.08 0  1.16 0.08 0  1.18 0.08 0  1.2 0.08 0  1.22 0.08 0  1.24 0.08 0  1.26 0.08 0  1.28 0.08 0  1.3 0.08 0  1.32 0.08 0  1.34 0.08 0  1.36 0.08 0  1.38 0.08 0  1.4 0.08 0  1.42 0.08 0  1.44 0.08 0  1.46 0.08 0  1.48 0.08 0  1.5 0.08 0  1.52 0.08 0  1.54 0.08 0  1.56 0.08 0  1.58 0.08 0  1.6 0.08 0  1.62 0.08 0  1.64 0.08 0  1.66 0.08 0  1.68 0.08 0  1.7 0.08 0  1.72 0.08 0  1.74 0.08 0  1.76 0.08 0  1.78 0.08 0  1.8 0.08 0  1.82 0.08 0  1.84 0.08 0  1.86 0.08 0  1.88 0.08 0  1.9 0.08 0  1.92 0.08 0  1.94 0.08 0  1.96 0.08 0  1.98 0.08 0  2 0.08 0  0 0.1 0  0.02 0.1 0  0.04 0.1 0  0.06 0.1 0  0.08 0.1 0  0.1 0.1 0  0.12 0.1 0  0.14 0.1 0  0.16 0.1 0  0.18 0.1 0  0.2 0.1 0  0.22 0.1 0  0.24 0.1 0  0.26 0.1 0  0.28 0.1 0  0.3 0.1 0  0.32 0.1 0  0.34 0.1 0  0.36 0.1 0  0.38 0.1 0  0.4 0.1 0  0.42 0.1 0  0.44 0.1 0  0.46 0.1 0  0.48 0.1 0  0.5 0.1 0  0.52 0.1 0  0.54 0.1 0  0.5600000000000001 0.1 0  0.58 0.1 0  0.6 0.1 0  0.62 0.1 0  0.64 0.1 0  0.66 0.1 0  0.68 0.1 0  0.7 0.1 0  0.72 0.1 0  0.74 0.1 0  0.76 0.1 0  0.78 0.1 0  0.8 0.1 0  0.82 0.1 0  0.84 0.1 0  0.86 0.1 0  0.88 0.1 0  0.9 0.1 0  0.92 0.1 0  0.9399999999999999 0.1 0  0.96 0.1 0  0.98 0.1 0  1 0.1 0  1.02 0.1 0  1.04 0.1 0  1.06 0.1 0  1.08 0.1 0  1.1 0.1 0  1.12 0.1 0  1.14 0.1 0  1.16 0.1 0  1.18 0.1 0  1.2 0.1 0  1.22 0.1 0  1.24 0.1 0  1.26 0.1 0  1.28 0.1 0  1.3 0.1 0  1.32 0.1 0  1.34 0.1 0  1.36 0.1 0  1.38 0.1 0  1.4 0.1 0  1.42 0.1 0  1.44 0.1 0  1.46 0.1 0  1.48 0.1 0  1.5 0.1 0  1.52 0.1 0  1.54 0.1 0  1.56 0.1 0  1.58 0.1 0  1.6 0.1 0  1.62 0.1 0  1.64 0.1 0  1.66 0.1 0  1.68 0.1 0  1.7 0.1 0  1.72 0.1 0  1.74 0.1 0  1.76 0.1 0  1.78 0.1 0  1.8 0.1 0  1.82 0.1 0  1.84 0.1 0  1.86 0.1 0  1.88 0.1 0  1.9 0.1 0  1.92 0.1 0  1.94 0.1 0  1.96 0.1 0  1.98 0.1 0  2 0.1 0  0 0.12 0  0.02 0.12 0  0.04 0.12 0  0.06 0.12 0  0.08 0.12 0  0.1 0.12 0  0.12 0.12 0  0.14 0.12 0  0.16 0.12 0  0.18 0.12 0  0.2 0.12 0  0.22 0.12 0  0.24 0.12 0  0.26 0.12 0  0.28 0.12 0  0.3 0.12 0  0.32 0.12 0  0.34 0.12 0  0.36 0.12 0  0.38 0.12 0  0.4 0.12 0  0.42 0.12 0  0.44 0.12 0  0.46 0.12 0  0.48 0.12 0  0.5 0.12 0  0.52 0.12 0  0.54 0.12 0  0.5600000000000001 0.12 0  0.58 0.12 0  0.6 0.12 0  0.62 0.12 0  0.64 0.12 0  0.66 0.12 0  0.68 0.12 0  0.7 0.12 0  0.72 0.12 0  0.74 0.12 0  0.76 0.12 0  0.78 0.12 0  0.8 0.12 0  0.82 0.12 0  0.84 0.12 0  0.86 0.12 0  0.88 0.12 0  0.9 0.12 0  0.92 0.12 0  0.9399999999999999 0.12 0  0.96 0.12 0  0.98 0.12 0  1 0.12 0  1.02 0.12 0  1.04 0.12 0  1.06 0.12 0  1.08 0.12 0  1.1 0.12 0  1.12 0.12 0  1.14 0.12 0  1.16 0.12 0  1.18 0.12 0  1.2 0.12 0  1.22 0.12 0  1.24 0.12 0  1.26 0.12 0  1.28 0.12 0  1.3 0.12 0  1.32 0.12 0  1.34 0.12 0  1.36 0.12 0  1.38 0.12 0  1.4 0.12 0  1.42 0.12 0  1.44 0.12 0  1.46 0.12 0  1.48 0.12 0  1.5 0.12 0  1.52 0.12 0  1.54 0.12 0  1.56 0.12 0  1.58 0.12 0  1.6 0.12 0  1.62 0.12 0  1.64 0.12 0  1.66 0.12 0  1.68 0.12 0  1.7 0.12 0  1.72 0.12 0  1.74 0.12 0  1.76 0.12 0  1.78 0.12 0  1.8 0.12 0  1.82 0.12 0  1.84 0.12 0  1.86 0.12 0  1.88 0.12 0  1.9 0.12 0  1.92 0.12 0  1.94 0.12 0  1.96 0.12 0  1.98 0.12 0  2 0.12 0  0 0.14 0  0.02 0.14 0  0.04 0.14 0  0.06 0.14 0  0.08 0.14 0  0.1 0.14 0  0.12 0.14 0  0.14 0.14 0  0.16 0.14 0  0.18 0.14 0  0.2 0.14 0  0.22 0.14 0  0.24 0.14 0  0.26 0.14 0  0.28 0.14 0  0.3 0.14 0  0.32 0.14 0  0.34 0.14 0  0.36 0.14 0  0.38 0.14 0  0.4 0.14 0  0.42 0.14 0  0.44 0.14 0  0.46 0.14 0  0.48 0.14 0  0.5 0.14 0  0.52 0.14 0  0.54 0.14 0  0.5600000000000001 0.14 0  0.58 0.14 0  0.6 0.14 0  0.62 0.14 0  0.64 0.14 0  0.66 0.14 0  0.68 0.14 0  0.7 0.14 0  0.72 0.14 0  0.74 0.14 0  0.76 0.14 0  0.78 0.14 0  0.8 0.14 0  0.82 0.14 0  0.84 0.14 0  0.86 0.14 0  0.88 0.14 0  0.9 0.14 0  0.92 0.14 0  0.9399999999999999 0.14 0  0.96 0.14 0  0.98 0.14 0  1 0.14 0  1.02 0.14 0  1.04 0.14 0  1.06 0.14 0  1.08 0.14 0  1.1 0.14 0  1.12 0.14 0  1.14 0.14 0  1.16 0.14 0  1.18 0.14 0  1.2 0.14 0  1.22 0.14 0  1.24 0.14 0  1.26 0.14 0  1.28 0.14 0  1.3 0.14 0  1.32 0.14 0  1.34 0.14 0  1.36 0.14 0  1.38 0.14 0  1.4 0.14 0  1.42 0.14 0  1.44 0.14 0  1.46 0.14 0  1.48 0.14 0  1
[...]
<PointData  Scalars="sols[i]"> 
<DataArray  type="Float64"  Name="sols[i]"  format="ascii">3.5013370273496219e-01  2.9226412528179535e-01  2.9226416266311056e-01  2.9226422987533623e-01  2.9226433913950045e-01  2.9226451108168205e-01  2.9226477754373720e-01  2.9226518289392156e-01  2.9226578480898247e-01  2.9226665537731716e-01  2.9226788296954814e-01  2.9226957502102641e-01  2.9227186162279228e-01  2.9227489959839542e-01  2.9227887656249074e-01  2.9228401433214929e-01  2.9229057100874017e-01  2.9229884108055593e-01  2.9230915302153959e-01  2.9232186407763366e-01  2.9233735222610951e-01  2.9235600563426883e-01  2.9237821029011740e-01  2.9240433677706301e-01  2.9243472736577569e-01  2.9246968465586126e-01  2.9250946289737084e-01  2.9255426285630726e-01  2.9260423069065056e-01  2.9265946082534622e-01  2.9272000232504586e-01  2.9278586783331945e-01  2.9285704384109279e-01  2.9293350090961473e-01  2.9301520251930868e-01  2.9310211143033860e-01  2.9319419277923892e-01  2.9329141353676308e-01  2.9339373834764287e-01  2.9350112210224516e-01  2.9361349979358892e-01  2.9373077428093863e-01  2.9385280248511930e-01  2.9397938030620485e-01  2.9411022622490973e-01  2.9424496319005855e-01  2.9438309810150087e-01  2.9452399808506485e-01  2.9466686294816397e-01  2.9481069382035163e-01  2.9495425911056494e-01  2.9509606056680077e-01  2.9523430428437852e-01  2.9536688364082259e-01  2.9549138273843040e-01  2.9560510919198796e-01  2.9570516322134138e-01  2.9578854566622076e-01  2.9585230127553053e-01  2.9589368691130935e-01  2.9591034908540831e-01  2.9590049303154636e-01  2.9586302660201669e-01  2.9579766550824788e-01  2.9570499021982072e-01  2.9558644859611150e-01  2.9544430251149661e-01  2.9528152177160516e-01  2.9510163412641494e-01  2.9490854508550007e-01  2.9470634432405696e-01  2.9449911598280215e-01  2.9429076808544091e-01  2.9408489225655188e-01  2.9388465993906393e-01  2.9369275644329929e-01  2.9351135021836122e-01  2.9334209212789558e-01  2.9318613824701850e-01  2.9304418951496430e-01  2.9291654210864115e-01  2.9280314330064555e-01  2.9270364858724579e-01  2.9261747688727752e-01  2.9254386157679801e-01  2.9248189603232899e-01  2.9243057320387050e-01  2.9238881950296253e-01  2.9235552392602354e-01  2.9232956378040598e-01  2.9230982858031312e-01  2.9229524357255954e-01  2.9228479388563788e-01  2.9227754943694445e-01  2.9227268950809193e-01  2.9226952445778515e-01  2.9226751075992013e-01  2.9226625515003241e-01  2.9226550514668626e-01  2.9226512568385266e-01  4.1955477319897405e-01  2.9226412684290709e-01  1.7136376488790120e-01  1.7136381029771347e-01  1.7136390071435725e-01  1.7136405894776513e-01  1.7136431886783082e-01  1.7136472907501293e-01  1.7136535735800693e-01  1.7136629486278876e-01  1.7136765978454802e-01  1.7136960071015328e-01  1.7137229971966084e-01  1.7137597522387835e-01  1.7138088436714330e-01  1.7138732470036605e-01  1.7139563474785749e-01  1.7140619306334762e-01  1.7141941540316158e-01  1.7143574974150871e-01  1.7145566901258363e-01  1.7147966167639817e-01  1.7150822045049866e-01  1.7154182979779425e-01  1.7158095297561041e-01  1.7162601959536766e-01  1.7167741468058512e-01  1.7173547012577489e-01  1.7180045924502813e-01  1.7187259477454028e-01  1.7195203029685505e-01  1.7203886463863369e-01  1.7213314841806018e-01  1.7223489163935460e-01  1.7234407109282554e-01  1.7246063633907754e-01  1.7258451322806267e-01  1.7271560419557969e-01  1.7285378494219736e-01  1.7299889747589486e-01  1.7315073983805318e-01  1.7330905307896144e-01  1.7347350618757418e-01  1.7364367969100114e-01  1.7381904851843061e-01  1.7399896451949157e-01  1.7418263877165358e-01  1.7436912358326925e-01  1.7455729398569700e-01  1.7474582860637311e-01  1.7493319020989670e-01  1.7511760693395387e-01  1.7529705630891554e-01  1.7546925541283759e-01  1.7563166174438452e-01  1.7578149026771622e-01  1.7591575222950478e-01  1.7603132045663314e-01  1.7612502375812536e-01  1.7619376985765667e-01  1.7623469232736866e-01  1.7624531289840353e-01  1.7622370706318258e-01  1.7616865873969059e-01  1.7607978909098448e-01  1.7595764523489077e-01  1.7580373679431116e-01  1.7562051254667657e-01  1.7541127568878592e-01  1.7518004336633552e-01  1.7493136264991715e-01  1.7467009979379350e-01  1.7440122166040120e-01  1.7412958750416618e-01  1.7385976626794156e-01  1.7359588992652156e-01  1.7334154819625208e-01  1.7309972506478510e-01  1.7287277376486962e-01  1.7266242432598058e-01  1.7246981664260833e-01  1.7229555182851200e-01  1.7213975513948229e-01  1.7200214464281038e-01  1.7188210088579597e-01  1.7177873395572296e-01  1.7169094547378339e-01  1.7161748418330561e-01  1.7155699482186068e-01  1.7150806083147330e-01  1.7146924207614334e-01  1.7143910902047979e-01  1.7141627471280438e-01  1.7139942537467109e-01  1.7138734945270670e-01  1.7137896379691142e-01  1.7137333459688892e-01  1.7136969056986875e-01  1.7136742750199485e-01  1.7136610595905749e-01  1.7136543774730409e-01  2.9226512955499540e-01  2.9226416910239933e-01  1.7136380768196588e-01  1.7136387382310270e-01  1.7136400935439561e-01  1.7136424639576497e-01  1.7136462853367579e-01  1.7136521122054621e-01  1.7136606416065253e-01  1.7136727470795671e-01  1.7136895136378635e-01  1.7137122694959900e-01  1.7137426129356903e-01  1.7137824333970753e-01  1.7138339255980098e-01  1.7138995949343375e-01  1.7139822520180756e-01  1.7140849941861724e-01  1.7142111722445477e-01  1.7143643416094459e-01  1.7145481983065347e-01  1.7147665018578101e-01  1.7150229887260057e-01  1.7153212814499147e-01  1.7156647996413232e-01  1.7160566794132842e-01  1.7164997074217231e-01  1.7169962744913100e-01  1.7175483518616808e-01  1.7181574906204455e-01  1.7188248421943936e-01  1.7195511951930897e-01  1.7203370217963571e-01  1.7211825255578542e-01  1.7220876821611283e-01  1.7230522653590238e-01  1.7240758519286989e-01  1.7251578017307770e-01  1.7262972115421105e-01  1.7274928438830006e-01  1.7287430342587737e-01  1.7300455817841456e-01  1.7313976289173999e-01  1.7327955359019911e-01  1.7342347544419684e-01  1.7357097035339936e-01  1.7372136483961426e-01  1.7387385816984630e-01  1.7402751054209148e-01  1.7418123123103596e-01  1.7433376686533764e-01  1.7448369052070356e-01  1.7462939304171562e-01  1.7476907886042153e-01  1.7490076939818536e-01  1.7502231769728033e-01  1.7513143798971931e-01  1.7522575327654186e-01  1.7530286257977848e-01  1.7536042741721428e-01  1.7539627449029752e-01  1.7540850900626578e-01  1.7539563100574465e-01  1.7535664590221595e-01  1.7529115985957894e-01  1.7519945027198841e-01  1.7508250206099166e-01  1.7494200280737734e-01  1.7478029397319783e-01  1.7460028066348016e-01  1.7440530728589307e-01  1.7419901013255495e-01  1.7398515983168353e-01  1.7376750668301724e-01  1.7354964026988046e-01  1.7333487186211946e-01  1.7312614462190618e-01  1.7292597317855310e-01  1.7273641128762454e-01  1.7255904431327551e-01  1.7239500218938317e-01  1.7224498816180170e-01  1.7210931875840446e-01  1.7198797086343706e-01  1.7188063234586018e-01  1.7178675333428808e-01  1.7170559591454951e-01  1.7163628072516979e-01  1.7157782959474804e-01  1.7152920392823073e-01  1.7148933891963694e-01  1.7145717377224587e-01  1.7143167790948313e-01  1.7141187270364752e-01  1.7139684771621411e-01  1.7138577025208374e-01  1.7137788793148279e-01  1.7137252693942109e-01  1.7136909380839724e-01  1.7136709133251929e-01  1.7136613180027116e-01  2.9226552642393028e-01  2.9226424750331270e-01  1.7136389163753990e-01  1.7136400181899461e-01  1.7136421936903093e-01  1.7136458380757857e-01  1.7136514703019087e-01  1.7136597155007696e-01  1.7136713051649002e-01  1.7136870982009500e-01  1.7137081101548207e-01  1.7137355413252028e-01  1.7137707989543821e-01  1.7138155112641018e-01  1.7138715321252451e-01  1.7139409354218854e-01  1.7140259983031481e-01  1.7141291728320071e-01  1.7142530461667099e-01  1.7144002903374750e-01  1.7145736038061390e-01  1.7147756481495119e-01  1.7150089841588001e-01  1.7152760121780747e-01  1.7155789214562039e-01  1.7159196525939396e-01  1.7162998758730136e-01  1.7167209865004307e-01  1.7171841158291873e-01  1.7176901556910745e-01  1.7182397913559952e-01  1.7188335375134509e-01  1.7194717711963464e-01  1.7201547557994973e-01  1.7208826512495048e-01  1.7216555068164555e-01  1.7224732348046234e-01  1.7233355651917259e-01  1.7242419830047623e-01  1.7251916516723401e-01  1.7261833266568710e-01  1.7272152642393271e-01  1.7282851303384736e-01  1.7293899136741883e-01  1.7305258463731429e-01  1.7316883335540925e-01  1.7328718916362451e-01  1.7340700935066128e-01  1.7352755177144455e-01  1.7364796989963005e-01  1.7376730790758030e-01  1.7388449600227712e-01  1.7399834673412984e-01  1.7410755357871216e-01  1.7421069366146674e-01  1.7430623690889716e-01  1.7439256401275172e-01  1.7446799526313286e-01  1.7453083149540213e-01  1.7457940714230238e-01  1.7461215384041384e-01  1.7462767154985354e-01  1.7462480316507417e-01  1.7460270834414843e-01  1.7456093187065166e-01  1.7449946049663503e-01  1.7441876096551598e-01  1.7431979258161898e-01  1.7420399049864285e-01  1.7407321967623529e-01  1.7392970302970662e-01  1.7377593001576166e-01  1.7361455356611649e-01  1.7344828388150643e-01  1.7327978712267622e-01  1.7311159558645289e-01  1.7294603386041377e-01  1.7278516318768355e-01  1.7263074429027697e-01  1.7248421746160150e-01  1.7234669789613080e-01  1.7221898386319140e-01  1.7210157527039507e-01  1.7199470023691224e-01  1.7189834741414489e-01  1.7181230192887620e-01  1.7173618300489299e-01  1.7166948156586584e-01  1.7161159641625129e-01  1.7156186786828409e-01  1.7151960783879233e-01  1.7148412540888153e-01  1.7145474662538318e-01  1.7143082705822818e-01  1.7141175565053085e-01  1.7139694933837893e-01  1.7138584072847851e-01  1.7137786675583333e-01  1.7137247414286100e-01  1.7136915959038546e-01  1.7136751339308942e-01  2.9226631662803476e-01  2.9226438022225487e-01  1.7136403520818447e-01  1.7136421948912398e-01  1.7136455929531150e-01  1.7136509762570884e-01  1.7136589180519149e-01  1.7136701021031620e-01  1.7136853012335695e-01  1.7137053842104955e-01  1.7137313368894536e-01  1.7137642849664281e-01  1.7138055108654518e-01  1.7138564610584039e-01  1.7139187421648025e-01  1.7139941052174928e-01  1.7140844181631451e-01  1.7141916273870730e-01  1.7143177099649978e-01  1.7144646194285787e-01  1.7146342289527045e-01  1.7148282767988626e-01  1.7150483192989829e-01  1.7152956964019700e-01  1.7155715137482061e-01  1.7158766434587630e-01  1.7162117435335933e-01  1.7165772932907833e-01  1.7169736400491148e-01  1.7174010506319970e-01  1.7178597604993187e-01  1.7183500134760782e-01  1.7188720861041853e-01  1.7194262924364356e-01  1.7200129673400238e-01  1.7206324287066788e-01  1.7212849210265740e-01  1.7219705443415506e-01  1.7226891735802158e-01  1.7234403737383866e-01  1.7242233163846513e-01  1.7250367025986538e-01  1.7258786967043951e-01  1.7267468740346428e-01  1.7276381844433564e-01  1.7285489314910094e-01  1.7294747652955278e-01  1.7304106852538681e-01  1.7313510475444849e-01  1.7322895718950454e-01  1.7332193428902629e-01  1.7341328033024445e-01  1.7350217405115334e-01  1.7358772716763018e-01  1.7366898382033755e-01  1.7374492242317860e-01  1.7381446161613795e-01  1.7387647197457301e-01  1.7392979475279624e-01  1.7397326822850162e-01  1.7400576124762687e-01  1.7402621272022048e-01  1.7403367568274691e-01  1.7402736533825075e-01  1.7400671030037290e-01  1.7397140356357568e-01  1.7392144650826316e-01  1.7385717863074659e-01  1.7377928784295826e-01  1.7368879931258649e-01  1.7358704362204760e-01  1.7347560711910320e-01  1.7335626886678571e-01  1.7323092968273193e-01  1.7310153918448740e-01  1.7297002630243191e-01  1.7283823748059959e-01  1.7270788517186147e-01  1.7258050773033656e-01  1.7245744073040575e-01  1.7233979916921932e-01  1.7222846980876114e-01  1.7212411286506771e-01  1.7202717216622665e-01  1.7193789269252865e-01  1.7185634410568434e-01  1.7178244857197220e-01  1.7171601099601760e-01  1.7165674974444223e-01  1.7160432599217218e-01  1.7155836985861833e-01  1.7151850143583883e-01  1.7148434467753965e-01  1.7145553212877299e-01  1.7143169908744316e-01  1.7141246773928023e-01  1.7139742608551861e-01  1.7138611394657252e-01  1.7137803823912362e-01  1.7137274337780628e-01  1.7136990463847734e-01  2.9226765595850723e-01  2.9226459834358270e-01  1.7136426343594688e-01  1.7136455657075395e-01  1.7136506024112763e-01  1.7136581594233860e-01  1.7136688351881038e-01  1.7136833568861762e-01  1.7137025393272123e-01  1.7137272784903854e-01  1.7137585636442326e-01  1.7137974933904251e-01  1.7138452863421838e-01  1.7139032814166935e-01  1.7139729254176539e-01  1.7140557472483794e-01  1.7141533193269332e-01  1.7142672079647622e-01  1.7143989157810155e-01  1.7145498206177107e-01  1.7147211167130041e-01  1.7149137647773605e-01  1.7151284576873727e-01  1.7153656074938767e-01  1.7156253573323338e-01  1.7159076188324973e-01  1.7162121321479187e-01  1.7165385423330876e-01  1.7168864831096656e-01  1.7172556576085285e-01  1.7176459057020937e-01  1.7180572490240045e-01  1.7184899074917973e-01  1.7189442847096828e-01  1.7194209234446370e-01  1.7199204357542666e-01  1.7204434147526271e-01  1.7209903362110474e-01  1.7215614583173813e-01  1.7221567272668747e-01  1.7227756952542292e-01  1.7234174560897128e-01  1.7240806021536575e-01  1.7247632047229577e-01  1.7254628178067336e-01  1.7261765035557963e-01  1.7269008751282433e-01  1.7276321508488818e-01  1.7283662118538712e-01  1.7290986545153911e-01  1.7298248291441945e-01  1.7305398580201634e-01  1.7312386287766771e-01  1.7319157633690119e-01  1.7325655677810023e-01  1.7331819724703745e-01  1.7337584773045669e-01  1.7342881165150190e-01  1.7347634586224081e-01  1.7351766524916973e-01  1.7355195236943916e-01  1.7357837206816851e-01  1.7359609180515972e-01  1.7360431082568628e-01  1.7360230146931713e-01  1.7358946096594707e-01  1.7356536604866152e-01  1.7352982106933729e-01  1.7348289270334158e-01  1.7342492751497959e-01  1.7335655111709866e-01  1.7327864934731294e-01  1.7319233344259752e-01  1.7309889290331590e-01  1.7299974107291832e-01  1.7289635873835418e-01  1.7279024017194516e-01  1.7268284450224522e-01  1.7257555382241568e-01  1.7246963850098632e-01  1.7236622985635353e-01  1.7226630048286343e-01  1.7217065271447210e-01  1.7207991566972278e-01  1.7199455091128710e-01  1.7191486603551362e-01  1.7184103470429707e-01  1.7177312100179210e-01  1.7171110567547043e-01  1.7165491175541001e-01  1.7160442708073009e-01  1.7155952127546506e-01  1.7152005474409499e-01  1.7148587757330397e-01  1.7145681736559121e-01  1.7143265774791225e-01  1.7141311449618127e-01  1.7139782470732592e-01  1.7138637612018559e-01  1.7137841249859032e-01  1.7137380491768126e-01  2.9226983546696522e-01  2.9226495077280762e-01  1.7136460890582300e-01  1.7136504440314376e-01  1.7136575043324492e-01  1.7136676150360225e-01  1.7136813704612797e-01  1.7136995231156785e-01  1.7137229247619218e-01  1.7137525082971308e-01  1.7137892906248328e-01  1.7138343808620635e-01  1.7138889836470550e-01  1.7139543915004893e-01  1.7140319631416207e-01  1.7141230867843255e-01  1.7142291292034553e-01  1.7143513730924723e-01  1.7144909470800390e-01  1.7146487546552200e-01  1.7148254099303822e-01  1.7150211892061165e-01  1.7152360070537559e-01  1.7154694237617957e-01  1.7157206876270645e-01  1.7159888110886590e-01  1.7162726747091142e-01  1.7165711483748172e-01  1.7168832157568456e-01  1.7172080867716544e-01  1.7175452837698613e-01  1.7178946902756465e-01  1.7182565558901361e-01  1.7186314567773478e-01  1.7190202169375768e-01  1.7194238000795589e-01  1.7198431845334361e-01  1.7202792341541190e-01  1.7207325770006168e-01  1.7212035014485050e-01  1.7216918769337222e-01  1.7221971041108924e-01  1.7227180969439537e-01  1.7232532970671535e-01  1.7238007185531262e-01  1.7243580189482471e-01  1.7249225900770312e-01  1.7254916599158782e-01  1.7260623949722903e-01  1.7266319914223252e-01  1.7271977431329702e-01  1.7277570759041616e-01  1.7283075399823108e-01  1.7288467570395946e-01  1.7293723229903982e-01  1.7298816735194186e-01  1.7303719239887408e-01  1.7308396987125488e-01  1.7312809664174653e-01  1.7316908969460937e-01  1.7320637475064216e-01  1.7323927843993303e-01  1.7326702674292169e-01  1.7328875778079075e-01  1.7330355776438067e-01  1.7331051976794296e-01  1.7330881442738041e-01  1.7329775940322928e-01  1.7327687843779080e-01  1.7324594478466870e-01  1.7320500612411219e-01  1.7315438936628461e-01  1.7309468546342235e-01  1.7302671706017503e-01  1.7295149436026794e-01  1.7287016550940504e-01  1.7278396676854180e-01  1.7269417564178324e-01  1.7260206813008466e-01  1.7250888020727684e-01  1.7241577361311430e-01  1.7232380674934680e-01  1.7223391220914913e-01  1.7214688270336700e-01  1.7206336663431596e-01  1.7198387339980564e-01  1.7190878709895263e-01  1.7183838617592215e-01  1.7177286597172650e-01  1.7171236110213389e-01  1.7165696477482739e-01  1.7160674237298468e-01  1.7156173687076759e-01  1.7152196423560900e-01  1.7148739851977604e-01  1.7145794956132060e-01  1.7143344183295256e-01  1.7141361180601666e-01  1.7139815435477901e-01  1.7138686541206852e-01  1.7137991449174492e-01  2.9227331451819771e-01  2.9226550753495983e-01  1.7136511261195095e-01  1.7136571484101634e-01  1.7136665196953976e-01  1.7136794649749176e-01  1.7136965433685486e-01  1.7137185103649230e-01  1.7137462440440809e-01  1.7137807172625466e-01  1.7138229912464495e-01  1.7138742149103750e-01  1.7139356194898347e-01  1.7140085017029597e-01  1.7140941915074159e-01  1.7141940029448668e-01  1.7143091688408876e-01  1.7144407624801716e-01  1.7145896119291584e-01  1.7147562152902315e-01  1.7149406675243012e-01  1.7151426109084766e-01  1.7153612206179331e-01  1.7155952339480199e-01  1.7158430267046518e-01  1.7161027338555312e-01  1.7163724045171544e-01  1.7166501750490348e-01  1.7169344398559822e-01  1.7172239984703105e-01  1.7175181598172448e-01  1.7178167898398533e-01  1.7181202962517614e-01  1.7184295530391169e-01  1.7187457756982183e-01  1.7190703641715474e-01  1.7194047329165416e-01  1.7197501466288745e-01  1.7201075769143101e-01  1.7204775909975606e-01  1.7208602794114591e-01  1.7212552260305741e-01  1.7216615208574568e-01  1.7220778134348888e-01  1.7225024024162860e-01  1.7229333545261361e-01  1.7233686437761594e-01  1.7238062996601333e-01  1.7242445511937315e-01  1.7246819524596968e-01  1.7251174751433218e-01  1.7255505546608968e-01  1.7259810791202979e-01  1.7264093144812775e-01  1.7268357645583307e-01  1.7272609702048800e-01  1.7276852568884921e-01  1.7281084434748611e-01  1.7285295286128649e-01  1.7289463702679203e-01  1.7293553641676845e-01  1.7297511254121875e-01  1.7301262224990002e-01  1.7304711250577562e-01  1.7307745429921437e-01  1.7310241596102760e-01  1.7312075772796964e-01  1.7313132769056055e-01  1.7313314732369317e-01  1.7312548027838809e-01  1.7310788031112814e-01  1.7308021479293734e-01  1.7304266219339823e-01  1.7299568635149609e-01  1.7293999479802044e-01  1.7287648996491001e-01  1.7280622026605827e-01  1.7273033442910404e-01  1.7265003924712588e-01  1.7256655943928745e-01  1.7248109875303547e-01  1.7239480310545954e-01  1.7230872830119953e-01  1.7222381566799694e-01  1.7214087840743164e-01  1.7206059967812110e-01  1.7198354115102488e-01  1.7191015898323034e-01  1.7184082340184156e-01  1.7177583825906645e-01  1.7171545750754685e-01  1.7165989610447113e-01  1.7160933330941666e-01  1.7156390710041364e-01  1.7152370023258587e-01  1.7148872195164591e-01  1.7145889500958297e-01  1.7143406613622433e-01  1.7141407192383537e-01  1.7139891619815648e-01  1.7138914736778324e-01  2.9227874213234428e-01  2.9226636152575075e-01  1.7136582346280893e-01  1.7136659999520529e-01  1.7136778029285998e-01  1.7136937144378228e-01  1.7137142249681411e-01  1.7137400652540871e-01  1.7137721234916042e-01  1.7138114097882556e-01  1.7138590402338863e-01  1.7139162262128171e-01  1.7139842590127988e-01  1.7140644823834636e-01  1.7141582481758652e-01  1.7142668527934352e-01  1.7143914549472547e-01  1.7145329782588056e-01  1.7146920057350981e-01  1.7148686768120572e-01  1.7150626011229630e-01  1.7152728053391553e-01  1.71549772841