<?xml version="1.0"?>
<VTKFile type="UnstructuredGrid"  version="0.1"  >
<UnstructuredGrid>
<Piece  NumberOfPoints="5151" NumberOfCells="10000">
<Points>
<DataArray  type="Float64"  NumberOfComponents="3"  format="ascii">0 0 0  0.02 0 0  0.04 0 0  0.06 0 0  0.08 0 0  0.1 0 0  0.12 0 0  0.14 0 0  0.16 0 0  0.18 0 0  0.2 0 0  0.22 0 0  0.24 0 0  0.26 0 0  0.28 0 0  0.3 0 0  0.32 0 0  0.34 0 0  0.36 0 0  0.38 0 0  0.4 0 0  0.42 0 0  0.44 0 0  0.46 0 0  0.48 0 0  0.5 0 0  0.52 0 0  0.54 0 0  0.5600000000000001 0 0  0.58 0 0  0.6 0 0  0.62 0 0  0.64 0 0  0.66 0 0  0.68 0 0  0.7 0 0  0.72 0 0  0.74 0 0  0.76 0 0  0.78 0 0  0.8 0 0  0.82 0 0  0.84 0 0  0.86 0 0  0.88 0 0  0.9 0 0  0.92 0 0  0.9399999999999999 0 0  0.96 0 0  0.98 0 0  1 0 0  1.02 0 0  1.04 0 0  1.06 0 0  1.08 0 0  1.1 0 0  1.12 0 0  1.14 0 0  1.16 0 0  1.18 0 0  1.2 0 0  1.22 0 0  1.24 0 0  1.26 0 0  1.28 0 0  1.3 0 0  1.32 0 0  1.34 0 0  1.36 0 0  1.38 0 0  1.4 0 0  1.42 0 0  1.44 0 0  1.46 0 0  1.48 0 0  1.5 0 0  1.52 0 0  1.54 0 0  1.56 0 0  1.58 0 0  1.6 0 0  1.62 0 0  1.64 0 0  1.66 0 0  1.68 0 0  1.7 0 0  1.72 0 0  1.74 0 0  1.76 0 0  1.78 0 0  1.8 0 0  1.82 0 0  1.84 0 0  1.86 0 0  1.88 0 0  1.9 0 0  1.92 0 0  1.94 0 0  1.96 0 0  1.98 0 0  2 0 0  0 0.02 0  0.02 0.02 0  0.04 0.02 0  0.06 0.02 0  0.08 0.02 0  0.1 0.02 0  0.12 0.02 0  0.14 0.02 0  0.16 0.02 0  0.18 0.02 0  0.2 0.02 0  0.22 0.02 0  0.24 0.02 0  0.26 0.02 0  0.28 0.02 0  0.3 0.02 0  0.32 0.02 0  0.34 0.02 0  0.36 0.02 0  0.38 0.02 0  0.4 0.02 0  0.42 0.02 0  0.44 0.02 0  0.46 0.02 0  0.48 0.02 0  0.5 0.02 0  0.52 0.02 0  0.54 0.02 0  0.5600000000000001 0.02 0  0.58 0.02 0  0.6 0.02 0  0.62 0.02 0  0.64 0.02 0  0.66 0.02 0  0.68 0.02 0  0.7 0.02 0  0.72 0.02 0  0.74 0.02 0  0.76 0.02 0  0.78 0.02 0  0.8 0.02 0  0.82 0.02 0  0.84 0.02 0  0.86 0.02 0  0.88 0.02 0  0.9 0.02 0  0.92 0.02 0  0.9399999999999999 0.02 0  0.96 0.02 0  0.98 0.02 0  1 0.02 0  1.02 0.02 0  1.04 0.02 0  1.06 0.02 0  1.08 0.02 0  1.1 0.02 0  1.12 0.02 0  1.14 0.02 0  1.16 0.02 0  1.18 0.02 0  1.2 0.02 0  1.22 0.02 0  1.24 0.02 0  1.26 0.02 0  1.28 0.02 0  1.3 0.02 0  1.32 0.02 0  1.34 0.02 0  1.36 0.02 0  1.38 0.02 0  1.4 0.02 0  1.42 0.02 0  1.44 0.02 0  1.46 0.02 0  1.48 0.02 0  1.5 0.02 0  1.52 0.02 0  1.54 0.02 0  1.56 0.02 0  1.58 0.02 0  1.6 0.02 0  1.62 0.02 0  1.64 0.02 0  1.66 0.02 0  1.68 0.02 0  1.7 0.02 0  1.72 0.02 0  1.74 0.02 0  1.76 0.02 0  1.78 0.02 0  1.8 0.02 0  1.82 0.02 0  1.84 0.02 0  1.86 0.02 0  1.88 0.02 0  1.9 0.02 0  1.92 0.02 0  1.94 0.02 0  1.96 0.02 0  1.98 0.02 0  2 0.02 0  0 0.04 0  0.02 0.04 0  0.04 0.04 0  0.06 0.04 0  0.08 0.04 0  0.1 0.04 0  0.12 0.04 0  0.14 0.04 0  0.16 0.04 0  0.18 0.04 0  0.2 0.04 0  0.22 0.04 0  0.24 0.04 0  0.26 0.04 0  0.28 0.04 0  0.3 0.04 0  0.32 0.04 0  0.34 0.04 0  0.36 0.04 0  0.38 0.04 0  0.4 0.04 0  0.42 0.04 0  0.44 0.04 0  0.46 0.04 0  0.48 0.04 0  0.5 0.04 0  0.52 0.04 0  0.54 0.04 0  0.5600000000000001 0.04 0  0.58 0.04 0  0.6 0.04 0  0.62 0.04 0  0.64 0.04 0  0.66 0.04 0  0.68 0.04 0  0.7 0.04 0  0.72 0.04 0  0.74 0.04 0  0.76 0.04 0  0.78 0.04 0  0.8 0.04 0  0.82 0.04 0  0.84 0.04 0  0.86 0.04 0  0.88 0.04 0  0.9 0.04 0  0.92 0.04 0  0.9399999999999999 0.04 0  0.96 0.04 0  0.98 0.04 0  1 0.04 0  1.02 0.04 0  1.04 0.04 0  1.06 0.04 0  1.08 0.04 0  1.1 0.04 0  1.12 0.04 0  1.14 0.04 0  1.16 0.04 0  1.18 0.04 0  1.2 0.04 0  1.22 0.04 0  1.24 0.04 0  1.26 0.04 0  1.28 0.04 0  1.3 0.04 0  1.32 0.04 0  1.34 0.04 0  1.36 0.04 0  1.38 0.04 0  1.4 0.04 0  1.42 0.04 0  1.44 0.04 0  1.46 0.04 0  1.48 0.04 0  1.5 0.04 0  1.52 0.04 0  1.54 0.04 0  1.56 0.04 0  1.58 0.04 0  1.6 0.04 0  1.62 0.04 0  1.64 0.04 0  1.66 0.04 0  1.68 0.04 0  1.7 0.04 0  1.72 0.04 0  1.74 0.04 0  1.76 0.04 0  1.78 0.04 0  1.8 0.04 0  1.82 0.04 0  1.84 0.04 0  1.86 0.04 0  1.88 0.04 0  1.9 0.04 0  1.92 0.04 0  1.94 0.04 0  1.96 0.04 0  1.98 0.04 0  2 0.04 0  0 0.06 0  0.02 0.06 0  0.04 0.06 0  0.06 0.06 0  0.08 0.06 0  0.1 0.06 0  0.12 0.06 0  0.14 0.06 0  0.16 0.06 0  0.18 0.06 0  0.2 0.06 0  0.22 0.06 0  0.24 0.06 0  0.26 0.06 0  0.28 0.06 0  0.3 0.06 0  0.32 0.06 0  0.34 0.06 0  0.36 0.06 0  0.38 0.06 0  0.4 0.06 0  0.42 0.06 0  0.44 0.06 0  0.46 0.06 0  0.48 0.06 0  0.5 0.06 0  0.52 0.06 0  0.54 0.06 0  0.5600000000000001 0.06 0  0.58 0.06 0  0.6 0.06 0  0.62 0.06 0  0.64 0.06 0  0.66 0.06 0  0.68 0.06 0  0.7 0.06 0  0.72 0.06 0  0.74 0.06 0  0.76 0.06 0  0.78 0.06 0  0.8 0.06 0  0.82 0.06 0  0.84 0.06 0  0.86 0.06 0  0.88 0.06 0  0.9 0.06 0  0.92 0.06 0  0.9399999999999999 0.06 0  0.96 0.06 0  0.98 0.06 0  1 0.06 0  1.02 0.06 0  1.04 0.06 0  1.06 0.06 0  1.08 0.06 0  1.1 0.06 0  1.12 0.06 0  1.14 0.06 0  1.16 0.06 0  1.18 0.06 0  1.2 0.06 0  1.22 0.06 0  1.24 0.06 0  1.26 0.06 0  1.28 0.06 0  1.3 0.06 0  1.32 0.06 0  1.34 0.06 0  1.36 0.06 0  1.38 0.06 0  1.4 0.06 0  1.42 0.06 0  1.44 0.06 0  1.46 0.06 0  1.48 0.06 0  1.5 0.06 0  1.52 0.06 0  1.54 0.06 0  1.56 0.06 0  1.58 0.06 0  1.6 0.06 0  1.62 0.06 0  1.64 0.06 0  1.66 0.06 0  1.68 0.06 0  1.7 0.06 0  1.72 0.06 0  1.74 0.06 0  1.76 0.06 0  1.78 0.06 0  1.8 0.06 0  1.82 0.06 0  1.84 0.06 0  1.86 0.06 0  1.88 0.06 0  1.9 0.06 0  1.92 0.06 0  1.94 0.06 0  1.96 0.06 0  1.98 0.06 0  2 0.06 0  0 0.08 0  0.02 0.08 0  0.04 0.08 0  0.06 0.08 0  0.08 0.08 0  0.1 0.08 0  0.12 0.08 0  0.14 0.08 0  0.16 0.08 0  0.18 0.08 0  0.2 0.08 0  0.22 0.08 0  0.24 0.08 0  0.26 0.08 0  0.28 0.08 0  0.3 0.08 0  0.32 0.08 0  0.34 0.08 0  0.36 0.08 0  0.38 0.08 0  0.4 0.08 0  0.42 0.08 0  0.44 0.08 0  0.46 0.08 0  0.48 0.08 0  0.5 0.08 0  0.52 0.08 0  0.54 0.08 0  0.5600000000000001 0.08 0  0.58 0.08 0  0.6 0.08 0  0.62 0.08 0  0.64 0.08 0  0.66 0.08 0  0.68 0.08 0  0.7 0.08 0  0.72 0.08 0  0.74 0.08 0  0.76 0.08 0  0.78 0.08 0  0.8 0.08 0  0.82 0.08 0  0.84 0.08 0  0.86 0.08 0  0.88 0.08 0  0.9 0.08 0  0.92 0.08 0  0.9399999999999999 0.08 0  0.96 0.08 0  0.98 0.08 0  1 0.08 0  1.02 0.08 0  1.04 0.08 0  1.06 0.08 0  1.08 0.08 0  1.1 0.08 0  1.12 0.08 0  1.14 0.08 0  1.16 0.08 0  1.18 0.08 0  1.2 0.08 0  1.22 0.08 0  1.24 0.08 0  1.26 0.08 0  1.28 0.08 0  1.3 0.08 0  1.32 0.08 0  1.34 0.08 0  1.36 0.08 0  1.38 0.08 0  1.4 0.08 0  1.42 0.08 0  1.44 0.08 0  1.46 0.08 0  1.48 0.08 0  1.5 0.08 0  1.52 0.08 0  1.54 0.08 0  1.56 0.08 0  1.58 0.08 0  1.6 0.08 0  1.62 0.08 0  1.64 0.08 0  1.66 0.08 0  1.68 0.08 0  1.7 0.08 0  1.72 0.08 0  1.74 0.08 0  1.76 0.08 0  1.78 0.08 0  1.8 0.08 0  1.82 0.08 0  1.84 0.08 0  1.86 0.08 0  1.88 0.08 0  1.9 0.08 0  1.92 0.08 0  1.94 0.08 0  1.96 0.08 0  1.98 0.08 0  2 0.08 0  0 0.1 0  0.02 0.1 0  0.04 0.1 0  0.06 0.1 0  0.08 0.1 0  0.1 0.1 0  0.12 0.1 0  0.14 0.1 0  0.16 0.1 0  0.18 0.1 0  0.2 0.1 0  0.22 0.1 0  0.24 0.1 0  0.26 0.1 0  0.28 0.1 0  0.3 0.1 0  0.32 0.1 0  0.34 0.1 0  0.36 0.1 0  0.38 0.1 0  0.4 0.1 0  0.42 0.1 0  0.44 0.1 0  0.46 0.1 0  0.48 0.1 0  0.5 0.1 0  0.52 0.1 0  0.54 0.1 0  0.5600000000000001 0.1 0  0.58 0.1 0  0.6 0.1 0  0.62 0.1 0  0.64 0.1 0  0.66 0.1 0  0.68 0.1 0  0.7 0.1 0  0.72 0.1 0  0.74 0.1 0  0.76 0.1 0  0.78 0.1 0  0.8 0.1 0  0.82 0.1 0  0.84 0.1 0  0.86 0.1 0  0.88 0.1 0  0.9 0.1 0  0.92 0.1 0  0.9399999999999999 0.1 0  0.96 0.1 0  0.98 0.1 0  1 0.1 0  1.02 0.1 0  1.04 0.1 0  1.06 0.1 0  1.08 0.1 0  1.1 0.1 0  1.12 0.1 0  1.14 0.1 0  1.16 0.1 0  1.18 0.1 0  1.2 0.1 0  1.22 0.1 0  1.24 0.1 0  1.26 0.1 0  1.28 0.1 0  1.3 0.1 0  1.32 0.1 0  1.34 0.1 0  1.36 0.1 0  1.38 0.1 0  1.4 0.1 0  1.42 0.1 0  1.44 0.1 0  1.46 0.1 0  1.48 0.1 0  1.5 0.1 0  1.52 0.1 0  1.54 0.1 0  1.56 0.1 0  1.58 0.1 0  1.6 0.1 0  1.62 0.1 0  1.64 0.1 0  1.66 0.1 0  1.68 0.1 0  1.7 0.1 0  1.72 0.1 0  1.74 0.1 0  1.76 0.1 0  1.78 0.1 0  1.8 0.1 0  1.82 0.1 0  1.84 0.1 0  1.86 0.1 0  1.88 0.1 0  1.9 0.1 0  1.92 0.1 0  1.94 0.1 0  1.96 0.1 0  1.98 0.1 0  2 0.1 0  0 0.12 0  0.02 0.12 0  0.04 0.12 0  0.06 0.12 0  0.08 0.12 0  0.1 0.12 0  0.12 0.12 0  0.14 0.12 0  0.16 0.12 0  0.18 0.12 0  0.2 0.12 0  0.22 0.12 0  0.24 0.12 0  0.26 0.12 0  0.28 0.12 0  0.3 0.12 0  0.32 0.12 0  0.34 0.12 0  0.36 0.12 0  0.38 0.12 0  0.4 0.12 0  0.42 0.12 0  0.44 0.12 0  0.46 0.12 0  0.48 0.12 0  0.5 0.12 0  0.52 0.12 0  0.54 0.12 0  0.5600000000000001 0.12 0  0.58 0.12 0  0.6 0.12 0  0.62 0.12 0  0.64 0.12 0  0.66 0.12 0  0.68 0.12 0  0.7 0.12 0  0.72 0.12 0  0.74 0.12 0  0.76 0.12 0  0.78 0.12 0  0.8 0.12 0  0.82 0.12 0  0.84 0.12 0  0.86 0.12 0  0.88 0.12 0  0.9 0.12 0  0.92 0.12 0  0.9399999999999999 0.12 0  0.96 0.12 0  0.98 0.12 0  1 0.12 0  1.02 0.12 0  1.04 0.12 0  1.06 0.12 0  1.08 0.12 0  1.1 0.12 0  1.12 0.12 0  1.14 0.12 0  1.16 0.12 0  1.18 0.12 0  1.2 0.12 0  1.22 0.12 0  1.24 0.12 0  1.26 0.12 0  1.28 0.12 0  1.3 0.12 0  1.32 0.12 0  1.34 0.12 0  1.36 0.12 0  1.38 0.12 0  1.4 0.12 0  1.42 0.12 0  1.44 0.12 0  1.46 0.12 0  1.48 0.12 0  1.5 0.12 0  1.52 0.12 0  1.54 0.12 0  1.56 0.12 0  1.58 0.12 0  1.6 0.12 0  1.62 0.12 0  1.64 0.12 0  1.66 0.12 0  1.68 0.12 0  1.7 0.12 0  1.72 0.12 0  1.74 0.12 0  1.76 0.12 0  1.78 0.12 0  1.8 0.12 0  1.82 0.12 0  1.84 0.12 0  1.86 0.12 0  1.88 0.12 0  1.9 0.12 0  1.92 0.12 0  1.94 0.12 0  1.96 0.12 0  1.98 0.12 0  2 0.12 0  0 0.14 0  0.02 0.14 0  0.04 0.14 0  0.06 0.14 0  0.08 0.14 0  0.1 0.14 0  0.12 0.14 0  0.14 0.14 0  0.16 0.14 0  0.18 0.14 0  0.2 0.14 0  0.22 0.14 0  0.24 0.14 0  0.26 0.14 0  0.28 0.14 0  0.3 0.14 0  0.32 0.14 0  0.34 0.14 0  0.36 0.14 0  0.38 0.14 0  0.4 0.14 0  0.42 0.14 0  0.44 0.14 0  0.46 0.14 0  0.48 0.14 0  0.5 0.14 0  0.52 0.14 0  0.54 0.14 0  0.5600000000000001 0.14 0  0.58 0.14 0  0.6 0.14 0  0.62 0.14 0  0.64 0.14 0  0.66 0.14 0  0.68 0.14 0  0.7 0.14 0  0.72 0.14 0  0.74 0.14 0  0.76 0.14 0  0.78 0.14 0  0.8 0.14 0  0.82 0.14 0  0.84 0.14 0  0.86 0.14 0  0.88 0.14 0  0.9 0.14 0  0.92 0.14 0  0.9399999999999999 0.14 0  0.96 0.14 0  0.98 0.14 0  1 0.14 0  1.02 0.14 0  1.04 0.14 0  1.06 0.14 0  1.08 0.14 0  1.1 0.14 0  1.12 0.14 0  1.14 0.14 0  1.16 0.14 0  1.18 0.14 0  1.2 0.14 0  1.22 0.14 0  1.24 0.14 0  1.26 0.14 0  1.28 0.14 0  1.3 0.14 0  1.32 0.14 0  1.34 0.14 0  1.36 0.14 0  1.38 0.14 0  1.4 0.14 0  1.42 0.14 0  1.44 0.14 0  1.46 0.14 0  1.48 0.14 0  1
[...]
<PointData  Scalars="sols[i]"> 
<DataArray  type="Float64"  Name="sols[i]"  format="ascii">1.8387554288092545e-01  1.2888959840579314e-01  1.2889155889093437e-01  1.2889528275185036e-01  1.2890169176618882e-01  1.2891215191884081e-01  1.2892851196601723e-01  1.2895316032203136e-01  1.2898886150114461e-01  1.2903885279669872e-01  1.2910669640484992e-01  1.2919645782163308e-01  1.2931205883530708e-01  1.2945843168111282e-01  1.2964058892869262e-01  1.2986298471286045e-01  1.3013207351236600e-01  1.3045247712789801e-01  1.3083372510312549e-01  1.3128101643479811e-01  1.3179857869474487e-01  1.3239619810896899e-01  1.3307487537194609e-01  1.3383357734675419e-01  1.3466605846407334e-01  1.3555648506439646e-01  1.3647977997747196e-01  1.3740220481460655e-01  1.3828138934846260e-01  1.3907975032760070e-01  1.3976082542517165e-01  1.4029765646224968e-01  1.4067354712332511e-01  1.4088703047542969e-01  1.4094300459644749e-01  1.4085386435493838e-01  1.4063532587733504e-01  1.4030533195275860e-01  1.3988124459806051e-01  1.3938338837912309e-01  1.3883148622714567e-01  1.3824514599370338e-01  1.3764287222917518e-01  1.3704088337794801e-01  1.3645218045626648e-01  1.3588638515827356e-01  1.3534973468831218e-01  1.3484539692936681e-01  1.3437431826246993e-01  1.3393648744580117e-01  1.3353003338860212e-01  1.3315236971864342e-01  1.3280109687461425e-01  1.3247287287349110e-01  1.3216837565699763e-01  1.3188192134045348e-01  1.3161372847238731e-01  1.3136201788101734e-01  1.3112559659773629e-01  1.3090361839611142e-01  1.3069517611580003e-01  1.3049993435367171e-01  1.3031731427081600e-01  1.3014811668890799e-01  1.2999061515730612e-01  1.2984620977131653e-01  1.2971386489189371e-01  1.2959368277413230e-01  1.2948496330197823e-01  1.2938847535341660e-01  1.2930277373667301e-01  1.2922841903500637e-01  1.2916409006627771e-01  1.2910922694030358e-01  1.2906290517588809e-01  1.2902467854947297e-01  1.2899341778747525e-01  1.2896831196824182e-01  1.2894837833294429e-01  1.2893276304556395e-01  1.2892079988189414e-01  1.2891167678183960e-01  1.2890487658115221e-01  1.2889986184371852e-01  1.2889618163261504e-01  1.2889354884577114e-01  1.2889161331048099e-01  1.2889022659619226e-01  1.2888919549348926e-01  1.2888844676085731e-01  1.2888787984317851e-01  1.2888744503877400e-01  1.2888710501954140e-01  1.2888683650914143e-01  1.2888662464861045e-01  1.2888646101418613e-01  1.2888633759094636e-01  1.2888624930187251e-01  1.2888619190148881e-01  1.2888616150880000e-01  2.9858193007778167e-01  1.2888955052204695e-01  6.7663066726494150e-02  6.7664245067705422e-02  6.7666506502668713e-02  6.7670331954440277e-02  6.7676398091775822e-02  6.7685606374708648e-02  6.7699095211744109e-02  6.7718234281816475e-02  6.7744611510104677e-02  6.7780014188222715e-02  6.7826411763015931e-02  6.7885947219391146e-02  6.7960912330320714e-02  6.8053767870814949e-02  6.8167126863419664e-02  6.8303797944437306e-02  6.8466722589655360e-02  6.8659156685090969e-02  6.8884326863594983e-02  6.9145510655118828e-02  6.9445590558774487e-02  6.9786492997142915e-02  7.0168293842674312e-02  7.0588399976240751e-02  7.1040547350922745e-02  7.1513581534338524e-02  7.1992751558837748e-02  7.2459020274129107e-02  7.2894048250096349e-02  7.3279053196329130e-02  7.3598410832109551e-02  7.3841294874106608e-02  7.4001578822141229e-02  7.4078105343454825e-02  7.4074846755150539e-02  7.3997742080169002e-02  7.3855112175138668e-02  7.3656389647671100e-02  7.3411874385798853e-02  7.3132691275017564e-02  7.2829892148631822e-02  7.2514093292999390e-02  7.2194853329343611e-02  7.1879985989010020e-02  7.1575185682854911e-02  7.1284398058199416e-02  7.1010083827622944e-02  7.0752896900372814e-02  7.0512938698670202e-02  7.0289405189160395e-02  7.0081276091846292e-02  6.9887167909145759e-02  6.9705976582040016e-02  6.9536347676885490e-02  6.9377293932331455e-02  6.9227789057992942e-02  6.9087278231981353e-02  6.8954972399521808e-02  6.8830442856801580e-02  6.8713382848242133e-02  6.8603520812397442e-02  6.8500650043140807e-02  6.8404695172962632e-02  6.8315557813148034e-02  6.8233207118995179e-02  6.8157573238399410e-02  6.8088591991559533e-02  6.8026153555928046e-02  6.7970130361889078e-02  6.7920323044947370e-02  6.7876488180150726e-02  6.7838342215888928e-02  6.7805519914562185e-02  6.7777625755560386e-02  6.7754222869816680e-02  6.7734841771733112e-02  6.7718999329246118e-02  6.7706218658624570e-02  6.7696035426907331e-02  6.7688012164742420e-02  6.7681755785923878e-02  6.7676917496987871e-02  6.7673199918154001e-02  6.7670353230193991e-02  6.7668175170365302e-02  6.7666504184265841e-02  6.7665215141302248e-02  6.7664212918504926e-02  6.7663427328259293e-02  6.7662807363813679e-02  6.7662316691731048e-02  6.7661929303193008e-02  6.7661626115579923e-02  6.7661392694834913e-02  6.7661217377356198e-02  6.7661090140737512e-02  6.7661002157473379e-02  6.7660945787509905e-02  6.7660915107331979e-02  1.2888616135289699e-01  1.2889135279964292e-01  6.7664161297878903e-02  6.7665864737882331e-02  6.7668984527517434e-02  6.7673986017440374e-02  6.7681463470725720e-02  6.7692142021740356e-02  6.7706892807896990e-02  6.7726744210974299e-02  6.7752883596144037e-02  6.7786650290570835e-02  6.7829525735237733e-02  6.7883117512929900e-02  6.7949146990844644e-02  6.8029452442362873e-02  6.8125963612079773e-02  6.8240718688704530e-02  6.8375899890115374e-02  6.8533759783805839e-02  6.8716625366787951e-02  6.8926759408491883e-02  6.9166179559042182e-02  6.9436169527042277e-02  6.9737092677500598e-02  7.0067086984928792e-02  7.0422713527917347e-02  7.0797606211065137e-02  7.1182767529906432e-02  7.1567568632306913e-02  7.1940860763313644e-02  7.2290352130102958e-02  7.2602434427913823e-02  7.2863753665275574e-02  7.3064015653671224e-02  7.3195477656655919e-02  7.3255466719730822e-02  7.3243847309233681e-02  7.3164048156299302e-02  7.3022726038007427e-02  7.2829197908474835e-02  7.2594427974955356e-02  7.2330303940462512e-02  7.2048543646871785e-02  7.1759713286505197e-02  7.1472727860142624e-02  7.1194179404326874e-02  7.0928447161534805e-02  7.0678167984674745e-02  7.0444065685889484e-02  7.0226452338909687e-02  7.0024540765503629e-02  6.9837218737135096e-02  6.9663175471015484e-02  6.9501309552223750e-02  6.9350423923689106e-02  6.9209340562231839e-02  6.9077160289288411e-02  6.8953179052301250e-02  6.8836669896850208e-02  6.8727198819981614e-02  6.8624313710577076e-02  6.8527779418896886e-02  6.8437336583116140e-02  6.8352807543913166e-02  6.8274135829464691e-02  6.8201179063109033e-02  6.8133877855251046e-02  6.8072149380919891e-02  6.8015902949473184e-02  6.7965015208262647e-02  6.7919357409643347e-02  6.7878737351273921e-02  6.7842945746783470e-02  6.7811723644855992e-02  6.7784779789224953e-02  6.7761787090255252e-02  6.7742392407495605e-02  6.7726221963625766e-02  6.7712892711216721e-02  6.7702023544566101e-02  6.7693249773285169e-02  6.7686228932285958e-02  6.7680656293452907e-02  6.7676261891339476e-02  6.7672814446906440e-02  6.7670120160313638e-02  6.7668019086048539e-02  6.7666381567287659e-02  6.7665103945691904e-02  6.7664105023748158e-02  6.7663322084193012e-02  6.7662707267868716e-02  6.7662224665447412e-02  6.7661847560774840e-02  6.7661555983068958e-02  6.7661334943936280e-02  6.7661172615905069e-02  6.7661059207844140e-02  6.7660986474265286e-02  6.7660947610724331e-02  1.2888619086312211e-01  1.2889468613362809e-01  6.7666207195793499e-02  6.7668738506225554e-02  6.7673085670971106e-02  6.7679671290382826e-02  6.7689016209700664e-02  6.7701701662884098e-02  6.7718375487502300e-02  6.7739771055277370e-02  6.7766720976304651e-02  6.7800158425036755e-02  6.7841115044175448e-02  6.7890704415764808e-02  6.7950110806485040e-02  6.8020570275309000e-02  6.8103373264331316e-02  6.8199876455634204e-02  6.8311498712418955e-02  6.8439717359157104e-02  6.8586176719360278e-02  6.8752498617628527e-02  6.8940330908568520e-02  6.9151228921705638e-02  6.9386537818958580e-02  6.9646660296337468e-02  6.9932041659943669e-02  7.0242299370350800e-02  7.0576167969443146e-02  7.0932158256983804e-02  7.1307348463809761e-02  7.1692772415045805e-02  7.2072271069351573e-02  7.2424523173429040e-02  7.2727949697613856e-02  7.2963872670910118e-02  7.3118353007859724e-02  7.3183511253185660e-02  7.3158167880944980e-02  7.3048322813538458e-02  7.2865397663618686e-02  7.2624414974714807e-02  7.2341825244978994e-02  7.2034355156603502e-02  7.1717356306653934e-02  7.1403402570486593e-02  7.1101386059667246e-02  7.0816976908875007e-02  7.0552974944511737e-02  7.0310207380684553e-02  7.0088120902224299e-02  6.9885360997905308e-02  6.9700249182677282e-02  6.9530952820383629e-02  6.9375693406652159e-02  6.9232802063665208e-02  6.9100843778200124e-02  6.8978540999670226e-02  6.8864907976962264e-02  6.8758924944699873e-02  6.8659979483091785e-02  6.8567445095459825e-02  6.8480886859666620e-02  6.8399908602251105e-02  6.8324260106119514e-02  6.8253699835058385e-02  6.8188066718188958e-02  6.8127195719519071e-02  6.8070996543531284e-02  6.8019345905837122e-02  6.7972147386074072e-02  6.7929283172255286e-02  6.7890639000179290e-02  6.7856062017772639e-02  6.7825397907025131e-02  6.7798457366089193e-02  6.7775026890007986e-02  6.7754860156251595e-02  6.7737687188522369e-02  6.7723216966971131e-02  6.7711144592638065e-02  6.7701165627514909e-02  6.7692985574932973e-02  6.7686331883944073e-02  6.7680958237865671e-02  6.7676646744866911e-02  6.7673208395459816e-02  6.7670481477059050e-02  6.7668328250425819e-02  6.7666633506182142e-02  6.7665301702180339e-02  6.7664255259943865e-02  6.7663432160910045e-02  6.7662784127019954e-02  6.7662274382005824e-02  6.7661875819585632e-02  6.7661568598877037e-02  6.7661338126732168e-02  6.7661173388773213e-02  6.7661065976167167e-02  6.7661009066960376e-02  1.2888624698986556e-01  1.2890023845589141e-01  6.7669539537939374e-02  6.7673141868989511e-02  6.7678984174441556e-02  6.7687413851132000e-02  6.7698889360833153e-02  6.7713895935510554e-02  6.7732932628716949e-02  6.7756531013837301e-02  6.7785272284974607e-02  6.7819793497731234e-02  6.7860788660201413e-02  6.7908988630933267e-02  6.7965164774936374e-02  6.8030073705214023e-02  6.8104509140471378e-02  6.8189288166136855e-02  6.8285322928678144e-02  6.8393621265757681e-02  6.8515461067526304e-02  6.8652427256374562e-02  6.8806727438325874e-02  6.8981077102062582e-02  6.9179166503983369e-02  6.9405969557130742e-02  6.9668473513499404e-02  6.9975932620568559e-02  7.0339257761746571e-02  7.0770593173837618e-02  7.1278802988974238e-02  7.1855755597801552e-02  7.2471792783729741e-02  7.3082868731173437e-02  7.3640305969034828e-02  7.4099737822108366e-02  7.4426405761848433e-02  7.4598583207490923e-02  7.4610834849872743e-02  7.4474402478197782e-02  7.4212370060151633e-02  7.3853061240130649e-02  7.3426643276932671e-02  7.2963652868465567e-02  7.2492156827903151e-02  7.2034171077779610e-02  7.1604009469920862e-02  7.1209413320509660e-02  7.0853303181803717e-02  7.0535154698249378e-02  7.0252610304090843e-02  7.0002284808317439e-02  6.9780385537470499e-02  6.9583258157930955e-02  6.9407516546860559e-02  6.9250086162681801e-02  6.9108330892995562e-02  6.8980011122507512e-02  6.8863218983133911e-02  6.8756403511529715e-02  6.8658245461357459e-02  6.8567673514139615e-02  6.8483820127627631e-02  6.8406012716273640e-02  6.8333673290287611e-02  6.8266367190963337e-02  6.8203739228841209e-02  6.8145510367322984e-02  6.8091465221493133e-02  6.8041434861853420e-02  6.7995277880128879e-02  6.7952890065434132e-02  6.7914169253751308e-02  6.7879029380752964e-02  6.7847380120873116e-02  6.7819115629086227e-02  6.7794113005797935e-02  6.7772220857501134e-02  6.7753250717671937e-02  6.7736981577743952e-02  6.7723163535820585e-02  6.7711530702302999e-02  6.7701817098523465e-02  6.7693767056076909e-02  6.7687145325855208e-02  6.7681738858189941e-02  6.7677357577262051e-02  6.7673832932234737e-02  6.7671016136801834e-02  6.7668777124900853e-02  6.7667004130321340e-02  6.7665602346779360e-02  6.7664493654578120e-02  6.7663615336011049e-02  6.7662918901941080e-02  6.7662367991409761e-02  6.7661936280596469e-02  6.7661605157592467e-02  6.7661361813030604e-02  6.7661198365527586e-02  6.7661110022081042e-02  1.2888633477007549e-01  1.2890892706934537e-01  6.7674570519685992e-02  6.7679343878093101e-02  6.7686802069174434e-02  6.7697189399660074e-02  6.7710902554879770e-02  6.7728360314037089e-02  6.7749972667917088e-02  6.7776150204927402e-02  6.7807317580873619e-02  6.7843921459885381e-02  6.7886425827689251e-02  6.7935293350950443e-02  6.7990988965918653e-02  6.8053932884588969e-02  6.8124553515976197e-02  6.8203310850755108e-02  6.8290819718412415e-02  6.8387930361803628e-02  6.8496062695119236e-02  6.8617420748730673e-02  6.8755545403792015e-02  6.8915865179635868e-02  6.9106831666901930e-02  6.9341526520018029e-02  6.9640013577568258e-02  7.0030797185791999e-02  7.0550030272215639e-02  7.1241807017529052e-02  7.2144269013530188e-02  7.3250193494809240e-02  7.4495809415487682e-02  7.5777772503171775e-02  7.6974106530488598e-02  7.7971810005151271e-02  7.8682670003904914e-02  7.9051275967714801e-02  7.9067154631855208e-02  7.8766693328524165e-02  7.8213263403675209e-02  7.7474491274942256e-02  7.6616316103791007e-02  7.5705106366118019e-02  7.4801671886828472e-02  7.3950149628864842e-02  7.3174795986414853e-02  7.2485271658670899e-02  7.1882077381874784e-02  7.1360020869189508e-02  7.0911005313135378e-02  7.0525949939292315e-02  7.0195927515162154e-02  6.9912656004397541e-02  6.9668742076757287e-02  6.9457799344292803e-02  6.9274366546019012e-02  6.9113889561987538e-02  6.8972551891955877e-02  6.8847189058428515e-02  6.8735210422088217e-02  6.8634481697701602e-02  6.8543264290392841e-02  6.8460157536999772e-02  6.8384031470605122e-02  6.8313965043320074e-02  6.8249238160163192e-02  6.8189285295517141e-02  6.8133668259025726e-02  6.8082049418059148e-02  6.8034182788543021e-02  6.7989894912250493e-02  6.7949061194311058e-02  6.7911598848810539e-02  6.7877453244798089e-02  6.7846575361785677e-02  6.7818908940002587e-02  6.7794372424200902e-02  6.7772842120456020e-02  6.7754146620695788e-02  6.7738066566915417e-02  6.7724352908814248e-02  6.7712745716504624e-02  6.7702991536922108e-02  6.7694854351932954e-02  6.7688119507648678e-02  6.7682591001372847e-02  6.7678091070019278e-02  6.7674457468147528e-02  6.7671543462508865e-02  6.7669218743975995e-02  6.7667369580664966e-02  6.7665899374590957e-02  6.7664728800623200e-02  6.7663794870935823e-02  6.7663049567778022e-02  6.7662457782740396e-02  6.7661994955595134e-02  6.7661645584370739e-02  6.7661402869126502e-02  6.7661266611599186e-02  1.2888646208403196e-01  1.2892184832864045e-01  6.7681765757340098e-02  6.7687575275263701e-02  6.7696552475273411e-02  6.7708829265083953e-02  6.7724724886794013e-02  6.7744597454368963e-02  6.7768801452078170e-02  6.7797685730166077e-02  6.7831595312880563e-02  6.7870875192362609e-02  6.7915855156707908e-02  6.7966842770074420e-02  6.8024103347645692e-02  6.8087865644709436e-02  6.8158333997914072e-02  6.8235819398567737e-02  6.8320886608567305e-02  6.8414641175118918e-02  6.8519090575344818e-02  6.8637920944973577e-02  6.8777246495335134e-02  6.8947284953713869e-02  6.9164981258021424e-02  6.9458715423754938e-02  6.9875406002252199e-02  7.0486690188590467e-02  7.1391006059616333e-02  7.2724782252190298e-02  7.4629135514499886e-02  7.7128083545430423e-02  8.0094768143786230e-02  8.3272522876803548e-02  8.6307774580826779e-02  8.8854024218730329e-02  9.0632431804032965e-02  9.1460451025578107e-02  9.1317362953605277e-02  9.0359471069928060e-02  8.8817573980173911e-02  8.6892108789024716e-02  8.4750700190166089e-02  8.2562589845305179e-02  8.0481043405383895e-02  7.8600104038873547e-02  7.6952370759913041e-02  7.5537196836078416e-02  7.4338727079325387e-02  7.3332753149818880e-02  7.2492402247476301e-02  7.1792263604599948e-02  7.1209526552000760e-02  7.0724151412938432e-02  7.0319051034099855e-02  6.9979948667552277e-02  6.9694937002807267e-02  6.9454177971477404e-02  6.9249587897274090e-02  6.9074558904632627e-02  6.8923685966517254e-02  6.8792555800534491e-02  6.8677615590070046e-02  6.8575972162012513e-02  6.8485303735173281e-02  6.8403723739817263e-02  6.8329758355373624e-02  6.8262233737885550e-02  6.8200229330063061e-02  6.8143059547105658e-02  6.8090196675935494e-02  6.8041273316968257e-02  6.7996037798576991e-02  6.7954332926270955e-02  6.7916072512515552e-02  6.7881215374478027e-02  6.7849737119682771e-02  6.7821600566779924e-02  6.7796723206614048e-02  6.7774957546265224e-02  6.7756089460946967e-02  6.7739857476335694e-02  6.7725982812662983e-02  6.7714196647536987e-02  6.7704252326236627e-02  6.7695927914664486e-02  6.7689021028997015e-02  6.7683343295114815e-02  6.7678718293172305e-02  6.7674981323369507e-02  6.7671981881938154e-02  6.7669584659426588e-02  6.7667672032405493e-02  6.7666144793381289e-02  6.7664922233230215e-02  6.7663941295033420e-02  6.7663155101944872e-02  6.7662530803075174e-02  6.7662048788206114e-02  6.7661703339876922e-02  6.7661501134403904e-02  1.2888664453516419e-01  1.2894009681440924e-01  6.7691593134376823e-02  6.7698011464218846e-02  6.7708139827450525e-02  6.7722021232544671e-02  6.7739869587025464e-02  6.7761964507331671e-02  6.7788617123146738e-02  6.7820151348336077e-02  6.7856895374394363e-02  6.7899167363680707e-02  6.7947260049623662e-02  6.8001443473127768e-02  6.8061906059591754e-02  6.8128848169117392e-02  6.8202494973408245e-02  6.8283263507524353e-02  6.8372093691219063e-02  6.8470853557105929e-02  6.8583026722251667e-02  6.8714740952476192e-02  6.8876413170620973e-02  6.9085782533029799e-02  6.9374010934324257e-02  6.9797746140907599e-02  7.0459853545515247e-02  7.1532111366676421e-02  7.3278160970408859e-02  7.6140398755748795e-02  8.0703033096292939e-02  8.7335882971095666e-02  9.6090805314204622e-02  1.0651671956651451e-01  1.1736894030810921e-01  1.2698683015350876e-01  1.3370118388743596e-01  1.3618200182526813e-01  1.3426912535897462e-01  1.2921246277059592e-01  1.2258651619456440e-01  1.1536247846556549e-01  1.0807414925602890e-01  1.0122277322982011e-01  9.5222812427636708e-02  9.0205128171596011e-02  8.6083232803061474e-02  8.2723956068679189e-02  8.0003966219351436e-02  7.7807269525622599e-02  7.6032233853798634e-02  7.4597043131783766e-02  7.3435500816524168e-02  7.2493522581889389e-02  7.1727743622584036e-02  7.1103631865639089e-02  7.0593386990892404e-02  7.0174628480216522e-02  6.9829468288056543e-02  6.9543487812131446e-02  6.9305107162594040e-02  6.9105002102702942e-02  6.8935675023591797e-02  6.8791109882466853e-02  6.8666477446672466e-02  6.8557935181507337e-02  6.8462402828686125e-02  6.8377456404147205e-02  6.8301199353546851e-02  6.8232163764351275e-02  6.8169228944112523e-02  6.8111576880145117e-02  6.8058621604683664e-02  6.8009967966683321e-02  6.7965374418426830e-02  6.7924712002535109e-02  6.7887920383680744e-02  6.7854959220675526e-02  6.7825749283416392e-02  6.7800130171365047e-02  6.7777846384559609e-02  6.7758579326011106e-02  6.7741995186448078e-02  6.7727783447584067e-02  6.7715675351323223e-02  6.7705438817609959e-02  6.7696864888162220e-02  6.7689756711951390e-02  6.7683923474307031e-02  6.7679181943872319e-02  6.7675358583900530e-02  6.7672293660877986e-02  6.7669844658546835e-02  6.7667888211603744e-02  6.7666321409258046e-02  6.7665062140533416e-02  6.7664047792678705e-02  6.7663234263091759e-02  6.7662595822249774e-02  6.7662126911841050e-02  6.7661842333110067e-02  1.2888690133859165e-01  1.2896459556619380e-01  6.7704453807472614e-02  6.7710755648709917e-02  6.7721384079805380e-02  6.7736358733391649e-02  6.7755751713304946e-02  6.7779731720067141e-02  6.7808558612088607e-02  6.7842553403627909e-02  6.7882074620769103e-02  6.7927484812980721e-02  6.7979148150220742e-02  6.8037403953455478e-02  6.8102585340461846e-02  6.8175091984978037e-02  6.8255518238096335e-02  6.8344956018422956e-02  6.8445426720995628e-02  6.8560564730309470e-02  6.8696662304211537e-02  6.8864086921294698e-02  6.90795408284