<?xml version="1.0"?>
<VTKFile type="UnstructuredGrid"  version="0.1"  >
<UnstructuredGrid>
<Piece  NumberOfPoints="5151" NumberOfCells="10000">
<Points>
<DataArray  type="Float64"  NumberOfComponents="3"  format="ascii">0 0 0  0.02 0 0  0.04 0 0  0.06 0 0  0.08 0 0  0.1 0 0  0.12 0 0  0.14 0 0  0.16 0 0  0.18 0 0  0.2 0 0  0.22 0 0  0.24 0 0  0.26 0 0  0.28 0 0  0.3 0 0  0.32 0 0  0.34 0 0  0.36 0 0  0.38 0 0  0.4 0 0  0.42 0 0  0.44 0 0  0.46 0 0  0.48 0 0  0.5 0 0  0.52 0 0  0.54 0 0  0.5600000000000001 0 0  0.58 0 0  0.6 0 0  0.62 0 0  0.64 0 0  0.66 0 0  0.68 0 0  0.7 0 0  0.72 0 0  0.74 0 0  0.76 0 0  0.78 0 0  0.8 0 0  0.82 0 0  0.84 0 0  0.86 0 0  0.88 0 0  0.9 0 0  0.92 0 0  0.9399999999999999 0 0  0.96 0 0  0.98 0 0  1 0 0  1.02 0 0  1.04 0 0  1.06 0 0  1.08 0 0  1.1 0 0  1.12 0 0  1.14 0 0  1.16 0 0  1.18 0 0  1.2 0 0  1.22 0 0  1.24 0 0  1.26 0 0  1.28 0 0  1.3 0 0  1.32 0 0  1.34 0 0  1.36 0 0  1.38 0 0  1.4 0 0  1.42 0 0  1.44 0 0  1.46 0 0  1.48 0 0  1.5 0 0  1.52 0 0  1.54 0 0  1.56 0 0  1.58 0 0  1.6 0 0  1.62 0 0  1.64 0 0  1.66 0 0  1.68 0 0  1.7 0 0  1.72 0 0  1.74 0 0  1.76 0 0  1.78 0 0  1.8 0 0  1.82 0 0  1.84 0 0  1.86 0 0  1.88 0 0  1.9 0 0  1.92 0 0  1.94 0 0  1.96 0 0  1.98 0 0  2 0 0  0 0.02 0  0.02 0.02 0  0.04 0.02 0  0.06 0.02 0  0.08 0.02 0  0.1 0.02 0  0.12 0.02 0  0.14 0.02 0  0.16 0.02 0  0.18 0.02 0  0.2 0.02 0  0.22 0.02 0  0.24 0.02 0  0.26 0.02 0  0.28 0.02 0  0.3 0.02 0  0.32 0.02 0  0.34 0.02 0  0.36 0.02 0  0.38 0.02 0  0.4 0.02 0  0.42 0.02 0  0.44 0.02 0  0.46 0.02 0  0.48 0.02 0  0.5 0.02 0  0.52 0.02 0  0.54 0.02 0  0.5600000000000001 0.02 0  0.58 0.02 0  0.6 0.02 0  0.62 0.02 0  0.64 0.02 0  0.66 0.02 0  0.68 0.02 0  0.7 0.02 0  0.72 0.02 0  0.74 0.02 0  0.76 0.02 0  0.78 0.02 0  0.8 0.02 0  0.82 0.02 0  0.84 0.02 0  0.86 0.02 0  0.88 0.02 0  0.9 0.02 0  0.92 0.02 0  0.9399999999999999 0.02 0  0.96 0.02 0  0.98 0.02 0  1 0.02 0  1.02 0.02 0  1.04 0.02 0  1.06 0.02 0  1.08 0.02 0  1.1 0.02 0  1.12 0.02 0  1.14 0.02 0  1.16 0.02 0  1.18 0.02 0  1.2 0.02 0  1.22 0.02 0  1.24 0.02 0  1.26 0.02 0  1.28 0.02 0  1.3 0.02 0  1.32 0.02 0  1.34 0.02 0  1.36 0.02 0  1.38 0.02 0  1.4 0.02 0  1.42 0.02 0  1.44 0.02 0  1.46 0.02 0  1.48 0.02 0  1.5 0.02 0  1.52 0.02 0  1.54 0.02 0  1.56 0.02 0  1.58 0.02 0  1.6 0.02 0  1.62 0.02 0  1.64 0.02 0  1.66 0.02 0  1.68 0.02 0  1.7 0.02 0  1.72 0.02 0  1.74 0.02 0  1.76 0.02 0  1.78 0.02 0  1.8 0.02 0  1.82 0.02 0  1.84 0.02 0  1.86 0.02 0  1.88 0.02 0  1.9 0.02 0  1.92 0.02 0  1.94 0.02 0  1.96 0.02 0  1.98 0.02 0  2 0.02 0  0 0.04 0  0.02 0.04 0  0.04 0.04 0  0.06 0.04 0  0.08 0.04 0  0.1 0.04 0  0.12 0.04 0  0.14 0.04 0  0.16 0.04 0  0.18 0.04 0  0.2 0.04 0  0.22 0.04 0  0.24 0.04 0  0.26 0.04 0  0.28 0.04 0  0.3 0.04 0  0.32 0.04 0  0.34 0.04 0  0.36 0.04 0  0.38 0.04 0  0.4 0.04 0  0.42 0.04 0  0.44 0.04 0  0.46 0.04 0  0.48 0.04 0  0.5 0.04 0  0.52 0.04 0  0.54 0.04 0  0.5600000000000001 0.04 0  0.58 0.04 0  0.6 0.04 0  0.62 0.04 0  0.64 0.04 0  0.66 0.04 0  0.68 0.04 0  0.7 0.04 0  0.72 0.04 0  0.74 0.04 0  0.76 0.04 0  0.78 0.04 0  0.8 0.04 0  0.82 0.04 0  0.84 0.04 0  0.86 0.04 0  0.88 0.04 0  0.9 0.04 0  0.92 0.04 0  0.9399999999999999 0.04 0  0.96 0.04 0  0.98 0.04 0  1 0.04 0  1.02 0.04 0  1.04 0.04 0  1.06 0.04 0  1.08 0.04 0  1.1 0.04 0  1.12 0.04 0  1.14 0.04 0  1.16 0.04 0  1.18 0.04 0  1.2 0.04 0  1.22 0.04 0  1.24 0.04 0  1.26 0.04 0  1.28 0.04 0  1.3 0.04 0  1.32 0.04 0  1.34 0.04 0  1.36 0.04 0  1.38 0.04 0  1.4 0.04 0  1.42 0.04 0  1.44 0.04 0  1.46 0.04 0  1.48 0.04 0  1.5 0.04 0  1.52 0.04 0  1.54 0.04 0  1.56 0.04 0  1.58 0.04 0  1.6 0.04 0  1.62 0.04 0  1.64 0.04 0  1.66 0.04 0  1.68 0.04 0  1.7 0.04 0  1.72 0.04 0  1.74 0.04 0  1.76 0.04 0  1.78 0.04 0  1.8 0.04 0  1.82 0.04 0  1.84 0.04 0  1.86 0.04 0  1.88 0.04 0  1.9 0.04 0  1.92 0.04 0  1.94 0.04 0  1.96 0.04 0  1.98 0.04 0  2 0.04 0  0 0.06 0  0.02 0.06 0  0.04 0.06 0  0.06 0.06 0  0.08 0.06 0  0.1 0.06 0  0.12 0.06 0  0.14 0.06 0  0.16 0.06 0  0.18 0.06 0  0.2 0.06 0  0.22 0.06 0  0.24 0.06 0  0.26 0.06 0  0.28 0.06 0  0.3 0.06 0  0.32 0.06 0  0.34 0.06 0  0.36 0.06 0  0.38 0.06 0  0.4 0.06 0  0.42 0.06 0  0.44 0.06 0  0.46 0.06 0  0.48 0.06 0  0.5 0.06 0  0.52 0.06 0  0.54 0.06 0  0.5600000000000001 0.06 0  0.58 0.06 0  0.6 0.06 0  0.62 0.06 0  0.64 0.06 0  0.66 0.06 0  0.68 0.06 0  0.7 0.06 0  0.72 0.06 0  0.74 0.06 0  0.76 0.06 0  0.78 0.06 0  0.8 0.06 0  0.82 0.06 0  0.84 0.06 0  0.86 0.06 0  0.88 0.06 0  0.9 0.06 0  0.92 0.06 0  0.9399999999999999 0.06 0  0.96 0.06 0  0.98 0.06 0  1 0.06 0  1.02 0.06 0  1.04 0.06 0  1.06 0.06 0  1.08 0.06 0  1.1 0.06 0  1.12 0.06 0  1.14 0.06 0  1.16 0.06 0  1.18 0.06 0  1.2 0.06 0  1.22 0.06 0  1.24 0.06 0  1.26 0.06 0  1.28 0.06 0  1.3 0.06 0  1.32 0.06 0  1.34 0.06 0  1.36 0.06 0  1.38 0.06 0  1.4 0.06 0  1.42 0.06 0  1.44 0.06 0  1.46 0.06 0  1.48 0.06 0  1.5 0.06 0  1.52 0.06 0  1.54 0.06 0  1.56 0.06 0  1.58 0.06 0  1.6 0.06 0  1.62 0.06 0  1.64 0.06 0  1.66 0.06 0  1.68 0.06 0  1.7 0.06 0  1.72 0.06 0  1.74 0.06 0  1.76 0.06 0  1.78 0.06 0  1.8 0.06 0  1.82 0.06 0  1.84 0.06 0  1.86 0.06 0  1.88 0.06 0  1.9 0.06 0  1.92 0.06 0  1.94 0.06 0  1.96 0.06 0  1.98 0.06 0  2 0.06 0  0 0.08 0  0.02 0.08 0  0.04 0.08 0  0.06 0.08 0  0.08 0.08 0  0.1 0.08 0  0.12 0.08 0  0.14 0.08 0  0.16 0.08 0  0.18 0.08 0  0.2 0.08 0  0.22 0.08 0  0.24 0.08 0  0.26 0.08 0  0.28 0.08 0  0.3 0.08 0  0.32 0.08 0  0.34 0.08 0  0.36 0.08 0  0.38 0.08 0  0.4 0.08 0  0.42 0.08 0  0.44 0.08 0  0.46 0.08 0  0.48 0.08 0  0.5 0.08 0  0.52 0.08 0  0.54 0.08 0  0.5600000000000001 0.08 0  0.58 0.08 0  0.6 0.08 0  0.62 0.08 0  0.64 0.08 0  0.66 0.08 0  0.68 0.08 0  0.7 0.08 0  0.72 0.08 0  0.74 0.08 0  0.76 0.08 0  0.78 0.08 0  0.8 0.08 0  0.82 0.08 0  0.84 0.08 0  0.86 0.08 0  0.88 0.08 0  0.9 0.08 0  0.92 0.08 0  0.9399999999999999 0.08 0  0.96 0.08 0  0.98 0.08 0  1 0.08 0  1.02 0.08 0  1.04 0.08 0  1.06 0.08 0  1.08 0.08 0  1.1 0.08 0  1.12 0.08 0  1.14 0.08 0  1.16 0.08 0  1.18 0.08 0  1.2 0.08 0  1.22 0.08 0  1.24 0.08 0  1.26 0.08 0  1.28 0.08 0  1.3 0.08 0  1.32 0.08 0  1.34 0.08 0  1.36 0.08 0  1.38 0.08 0  1.4 0.08 0  1.42 0.08 0  1.44 0.08 0  1.46 0.08 0  1.48 0.08 0  1.5 0.08 0  1.52 0.08 0  1.54 0.08 0  1.56 0.08 0  1.58 0.08 0  1.6 0.08 0  1.62 0.08 0  1.64 0.08 0  1.66 0.08 0  1.68 0.08 0  1.7 0.08 0  1.72 0.08 0  1.74 0.08 0  1.76 0.08 0  1.78 0.08 0  1.8 0.08 0  1.82 0.08 0  1.84 0.08 0  1.86 0.08 0  1.88 0.08 0  1.9 0.08 0  1.92 0.08 0  1.94 0.08 0  1.96 0.08 0  1.98 0.08 0  2 0.08 0  0 0.1 0  0.02 0.1 0  0.04 0.1 0  0.06 0.1 0  0.08 0.1 0  0.1 0.1 0  0.12 0.1 0  0.14 0.1 0  0.16 0.1 0  0.18 0.1 0  0.2 0.1 0  0.22 0.1 0  0.24 0.1 0  0.26 0.1 0  0.28 0.1 0  0.3 0.1 0  0.32 0.1 0  0.34 0.1 0  0.36 0.1 0  0.38 0.1 0  0.4 0.1 0  0.42 0.1 0  0.44 0.1 0  0.46 0.1 0  0.48 0.1 0  0.5 0.1 0  0.52 0.1 0  0.54 0.1 0  0.5600000000000001 0.1 0  0.58 0.1 0  0.6 0.1 0  0.62 0.1 0  0.64 0.1 0  0.66 0.1 0  0.68 0.1 0  0.7 0.1 0  0.72 0.1 0  0.74 0.1 0  0.76 0.1 0  0.78 0.1 0  0.8 0.1 0  0.82 0.1 0  0.84 0.1 0  0.86 0.1 0  0.88 0.1 0  0.9 0.1 0  0.92 0.1 0  0.9399999999999999 0.1 0  0.96 0.1 0  0.98 0.1 0  1 0.1 0  1.02 0.1 0  1.04 0.1 0  1.06 0.1 0  1.08 0.1 0  1.1 0.1 0  1.12 0.1 0  1.14 0.1 0  1.16 0.1 0  1.18 0.1 0  1.2 0.1 0  1.22 0.1 0  1.24 0.1 0  1.26 0.1 0  1.28 0.1 0  1.3 0.1 0  1.32 0.1 0  1.34 0.1 0  1.36 0.1 0  1.38 0.1 0  1.4 0.1 0  1.42 0.1 0  1.44 0.1 0  1.46 0.1 0  1.48 0.1 0  1.5 0.1 0  1.52 0.1 0  1.54 0.1 0  1.56 0.1 0  1.58 0.1 0  1.6 0.1 0  1.62 0.1 0  1.64 0.1 0  1.66 0.1 0  1.68 0.1 0  1.7 0.1 0  1.72 0.1 0  1.74 0.1 0  1.76 0.1 0  1.78 0.1 0  1.8 0.1 0  1.82 0.1 0  1.84 0.1 0  1.86 0.1 0  1.88 0.1 0  1.9 0.1 0  1.92 0.1 0  1.94 0.1 0  1.96 0.1 0  1.98 0.1 0  2 0.1 0  0 0.12 0  0.02 0.12 0  0.04 0.12 0  0.06 0.12 0  0.08 0.12 0  0.1 0.12 0  0.12 0.12 0  0.14 0.12 0  0.16 0.12 0  0.18 0.12 0  0.2 0.12 0  0.22 0.12 0  0.24 0.12 0  0.26 0.12 0  0.28 0.12 0  0.3 0.12 0  0.32 0.12 0  0.34 0.12 0  0.36 0.12 0  0.38 0.12 0  0.4 0.12 0  0.42 0.12 0  0.44 0.12 0  0.46 0.12 0  0.48 0.12 0  0.5 0.12 0  0.52 0.12 0  0.54 0.12 0  0.5600000000000001 0.12 0  0.58 0.12 0  0.6 0.12 0  0.62 0.12 0  0.64 0.12 0  0.66 0.12 0  0.68 0.12 0  0.7 0.12 0  0.72 0.12 0  0.74 0.12 0  0.76 0.12 0  0.78 0.12 0  0.8 0.12 0  0.82 0.12 0  0.84 0.12 0  0.86 0.12 0  0.88 0.12 0  0.9 0.12 0  0.92 0.12 0  0.9399999999999999 0.12 0  0.96 0.12 0  0.98 0.12 0  1 0.12 0  1.02 0.12 0  1.04 0.12 0  1.06 0.12 0  1.08 0.12 0  1.1 0.12 0  1.12 0.12 0  1.14 0.12 0  1.16 0.12 0  1.18 0.12 0  1.2 0.12 0  1.22 0.12 0  1.24 0.12 0  1.26 0.12 0  1.28 0.12 0  1.3 0.12 0  1.32 0.12 0  1.34 0.12 0  1.36 0.12 0  1.38 0.12 0  1.4 0.12 0  1.42 0.12 0  1.44 0.12 0  1.46 0.12 0  1.48 0.12 0  1.5 0.12 0  1.52 0.12 0  1.54 0.12 0  1.56 0.12 0  1.58 0.12 0  1.6 0.12 0  1.62 0.12 0  1.64 0.12 0  1.66 0.12 0  1.68 0.12 0  1.7 0.12 0  1.72 0.12 0  1.74 0.12 0  1.76 0.12 0  1.78 0.12 0  1.8 0.12 0  1.82 0.12 0  1.84 0.12 0  1.86 0.12 0  1.88 0.12 0  1.9 0.12 0  1.92 0.12 0  1.94 0.12 0  1.96 0.12 0  1.98 0.12 0  2 0.12 0  0 0.14 0  0.02 0.14 0  0.04 0.14 0  0.06 0.14 0  0.08 0.14 0  0.1 0.14 0  0.12 0.14 0  0.14 0.14 0  0.16 0.14 0  0.18 0.14 0  0.2 0.14 0  0.22 0.14 0  0.24 0.14 0  0.26 0.14 0  0.28 0.14 0  0.3 0.14 0  0.32 0.14 0  0.34 0.14 0  0.36 0.14 0  0.38 0.14 0  0.4 0.14 0  0.42 0.14 0  0.44 0.14 0  0.46 0.14 0  0.48 0.14 0  0.5 0.14 0  0.52 0.14 0  0.54 0.14 0  0.5600000000000001 0.14 0  0.58 0.14 0  0.6 0.14 0  0.62 0.14 0  0.64 0.14 0  0.66 0.14 0  0.68 0.14 0  0.7 0.14 0  0.72 0.14 0  0.74 0.14 0  0.76 0.14 0  0.78 0.14 0  0.8 0.14 0  0.82 0.14 0  0.84 0.14 0  0.86 0.14 0  0.88 0.14 0  0.9 0.14 0  0.92 0.14 0  0.9399999999999999 0.14 0  0.96 0.14 0  0.98 0.14 0  1 0.14 0  1.02 0.14 0  1.04 0.14 0  1.06 0.14 0  1.08 0.14 0  1.1 0.14 0  1.12 0.14 0  1.14 0.14 0  1.16 0.14 0  1.18 0.14 0  1.2 0.14 0  1.22 0.14 0  1.24 0.14 0  1.26 0.14 0  1.28 0.14 0  1.3 0.14 0  1.32 0.14 0  1.34 0.14 0  1.36 0.14 0  1.38 0.14 0  1.4 0.14 0  1.42 0.14 0  1.44 0.14 0  1.46 0.14 0  1.48 0.14 0  1
[...]
<PointData  Scalars="sols[i]"> 
<DataArray  type="Float64"  Name="sols[i]"  format="ascii">5.0052386396435625e-03  3.3424457835420198e-03  3.3424457835420857e-03  3.3424457835421971e-03  3.3424457835423741e-03  3.3424457835426382e-03  3.3424457835430112e-03  3.3424457835435355e-03  3.3424457835442459e-03  3.3424457835451904e-03  3.3424457835464368e-03  3.3424457835480531e-03  3.3424457835501218e-03  3.3424457835527499e-03  3.3424457835560615e-03  3.3424457835601784e-03  3.3424457835652720e-03  3.3424457835715409e-03  3.3424457835791953e-03  3.3424457835885195e-03  3.3424457835998546e-03  3.3424457836135932e-03  3.3424457836302495e-03  3.3424457836504547e-03  3.3424457836749573e-03  3.3424457837047152e-03  3.3424457837408941e-03  3.3424457837849262e-03  3.3424457838385872e-03  3.3424457839040223e-03  3.3424457839839480e-03  3.3424457840817426e-03  3.3424457842016935e-03  3.3424457843494100e-03  3.3424457845325326e-03  3.3424457847620014e-03  3.3424457850547091e-03  3.3424457854385535e-03  3.3424457859627834e-03  3.3424457867190531e-03  3.3424457878842469e-03  3.3424457898072997e-03  3.3424457931844889e-03  3.3424457994096807e-03  3.3424458112672872e-03  3.3424458342852662e-03  3.3424458793361871e-03  3.3424459675471712e-03  3.3424461393720042e-03  3.3424464709363388e-03  3.3424471026259239e-03  3.3424482873544038e-03  3.3424504686548786e-03  3.3424544004560094e-03  3.3424613180762521e-03  3.3424731567033169e-03  3.3424927744258302e-03  3.3425240426971591e-03  3.3425714857374571e-03  3.3426389594283499e-03  3.3427272210279791e-03  3.3428317331041062e-03  3.3429421467979356e-03  3.3430430481887568e-03  3.3431165250846747e-03  3.3431476111963196e-03  3.3431304196225977e-03  3.3430702292807715e-03  3.3429806779618843e-03  3.3428791390547343e-03  3.3427812803023256e-03  3.3426971280432665e-03  3.3426305119960038e-03  3.3425809877114386e-03  3.3425462966822981e-03  3.3425241691346316e-03  3.3425132483376235e-03  3.3425133698702018e-03  3.3425254190965676e-03  3.3425507890768062e-03  3.3425902913362159e-03  3.3426424211777670e-03  3.3427013869813255e-03  3.3427564392661778e-03  3.3427947607871504e-03  3.3428076289589415e-03  3.3427947126711140e-03  3.3427624596683711e-03  3.3427192516939145e-03  3.3426718653142779e-03  3.3426248355698210e-03  3.3425813460528186e-03  3.3425437499507182e-03  3.3425133918023441e-03  3.3424904504141492e-03  3.3424741537340778e-03  3.3424632241447223e-03  3.3424563072738007e-03  3.3424522573494977e-03  3.3424502827233997e-03  9.9598940140928540e-03  3.3424457835420501e-03  1.6740296672352107e-03  1.6740296672352487e-03  1.6740296672353144e-03  1.6740296672354180e-03  1.6740296672355735e-03  1.6740296672357962e-03  1.6740296672361102e-03  1.6740296672365441e-03  1.6740296672371291e-03  1.6740296672379102e-03  1.6740296672389373e-03  1.6740296672402674e-03  1.6740296672419720e-03  1.6740296672441348e-03  1.6740296672468440e-03  1.6740296672502085e-03  1.6740296672543616e-03  1.6740296672594483e-03  1.6740296672656493e-03  1.6740296672731921e-03  1.6740296672823401e-03  1.6740296672934263e-03  1.6740296673068678e-03  1.6740296673231660e-03  1.6740296673429459e-03  1.6740296673669831e-03  1.6740296673962241e-03  1.6740296674318392e-03  1.6740296674752557e-03  1.6740296675282469e-03  1.6740296675930289e-03  1.6740296676723775e-03  1.6740296677698694e-03  1.6740296678902675e-03  1.6740296680402020e-03  1.6740296682295377e-03  1.6740296684740251e-03  1.6740296688006256e-03  1.6740296692584256e-03  1.6740296699408906e-03  1.6740296710312898e-03  1.6740296728951032e-03  1.6740296762665407e-03  1.6740296826216578e-03  1.6740296949163160e-03  1.6740297190254232e-03  1.6740297665037173e-03  1.6740298597783029e-03  1.6740300416892692e-03  1.6740303925406070e-03  1.6740310595868460e-03  1.6740323060579136e-03  1.6740345888720653e-03  1.6740386746386369e-03  1.6740457989201606e-03  1.6740578551958881e-03  1.6740775438502133e-03  1.6741082652933865e-03  1.6741532766043456e-03  1.6742137523202540e-03  1.6742869375548225e-03  1.6743658120484221e-03  1.6744394065620937e-03  1.6744942588090173e-03  1.6745185730463290e-03  1.6745074906970932e-03  1.6744648587070036e-03  1.6744007781109597e-03  1.6743282630389013e-03  1.6742589993968948e-03  1.6742001673307240e-03  1.6741541554528131e-03  1.6741202385216832e-03  1.6740965165108262e-03  1.6740812209121874e-03  1.6740733244537480e-03  1.6740727061688608e-03  1.6740800688805932e-03  1.6740966220587265e-03  1.6741233784365820e-03  1.6741598802478862e-03  1.6742024775034871e-03  1.6742432952459290e-03  1.6742721852357467e-03  1.6742820370237615e-03  1.6742727066412100e-03  1.6742494855228774e-03  1.6742188471648549e-03  1.6741856192734237e-03  1.6741527724759239e-03  1.6741224125744517e-03  1.6740962219228531e-03  1.6740751937984349e-03  1.6740594432344748e-03  1.6740483739470528e-03  1.6740410318053804e-03  1.6740364276027408e-03  1.6740337354026560e-03  1.6740323767315878e-03  3.3424502205721108e-03  3.3424457835422175e-03  1.6740296672352944e-03  1.6740296672353597e-03  1.6740296672354727e-03  1.6740296672356507e-03  1.6740296672359196e-03  1.6740296672363094e-03  1.6740296672368663e-03  1.6740296672376471e-03  1.6740296672387188e-03  1.6740296672401720e-03  1.6740296672421101e-03  1.6740296672446517e-03  1.6740296672479416e-03  1.6740296672521460e-03  1.6740296672574457e-03  1.6740296672640572e-03  1.6740296672722377e-03  1.6740296672822755e-03  1.6740296672945259e-03  1.6740296673094259e-03  1.6740296673274963e-03  1.6740296673493885e-03  1.6740296673759139e-03  1.6740296674080605e-03  1.6740296674470569e-03  1.6740296674944213e-03  1.6740296675520142e-03  1.6740296676221284e-03  1.6740296677075664e-03  1.6740296678117894e-03  1.6740296679390832e-03  1.6740296680947716e-03  1.6740296682855908e-03  1.6740296685202674e-03  1.6740296688105077e-03  1.6740296691728964e-03  1.6740296696325322e-03  1.6740296702302869e-03  1.6740296710376561e-03  1.6740296721872671e-03  1.6740296739358154e-03  1.6740296767938918e-03  1.6740296817925457e-03  1.6740296910270553e-03  1.6740297087563156e-03  1.6740297435998796e-03  1.6740298128663786e-03  1.6740299509335173e-03  1.6740302251316442e-03  1.6740307650876310e-03  1.6740318152875882e-03  1.6740338258205132e-03  1.6740376023719930e-03  1.6740445419844495e-03  1.6740569826006223e-03  1.6740786825324460e-03  1.6741153744654776e-03  1.6741750048381401e-03  1.6742661502092183e-03  1.6743926300720549e-03  1.6745485126524100e-03  1.6747185288714527e-03  1.6748782109863090e-03  1.6749956448459064e-03  1.6750422971295201e-03  1.6750083743689111e-03  1.6749060478329538e-03  1.6747604166000830e-03  1.6746024632879831e-03  1.6744583174065550e-03  1.6743414387497008e-03  1.6742537219561777e-03  1.6741910129412642e-03  1.6741479188704168e-03  1.6741203187099494e-03  1.6741061642346839e-03  1.6741055211480032e-03  1.6741203584614349e-03  1.6741540377959280e-03  1.6742099950367137e-03  1.6742888395762739e-03  1.6743834919596343e-03  1.6744749887522366e-03  1.6745370588558078e-03  1.6745524350466317e-03  1.6745241629886032e-03  1.6744683573503829e-03  1.6744009619839122e-03  1.6743313571055409e-03  1.6742640340722547e-03  1.6742025730665077e-03  1.6741504997033522e-03  1.6741098137223900e-03  1.6740803633142833e-03  1.6740604354981523e-03  1.6740477208122991e-03  1.6740400403899270e-03  1.6740356978597124e-03  1.6740335655640124e-03  3.3424519115778624e-03  3.3424457835425771e-03  1.6740296672354781e-03  1.6740296672356045e-03  1.6740296672358274e-03  1.6740296672361826e-03  1.6740296672367227e-03  1.6740296672375177e-03  1.6740296672386656e-03  1.6740296672402928e-03  1.6740296672425523e-03  1.6740296672456436e-03  1.6740296672497991e-03  1.6740296672552893e-03  1.6740296672624333e-03  1.6740296672715970e-03  1.6740296672831890e-03  1.6740296672976820e-03  1.6740296673156303e-03  1.6740296673376726e-03  1.6740296673645795e-03  1.6740296673972935e-03  1.6740296674369578e-03  1.6740296674849901e-03  1.6740296675431534e-03  1.6740296676136151e-03  1.6740296676990602e-03  1.6740296678028042e-03  1.6740296679289177e-03  1.6740296680824065e-03  1.6740296682693986e-03  1.6740296684974261e-03  1.6740296687757644e-03  1.6740296691158622e-03  1.6740296695320095e-03  1.6740296700423314e-03  1.6740296706704064e-03  1.6740296714481990e-03  1.6740296724215373e-03  1.6740296736608711e-03  1.6740296752831424e-03  1.6740296774968571e-03  1.6740296806959003e-03  1.6740296856556365e-03  1.6740296939424376e-03  1.6740297087659462e-03  1.6740297367416994e-03  1.6740297915039044e-03  1.6740299010236835e-03  1.6740301222118749e-03  1.6740305695096889e-03  1.6740314695544167e-03  1.6740332626697424e-03  1.6740367846104693e-03  1.6740435783057397e-03  1.6740564033993228e-03  1.6740800314161046e-03  1.6741224512865716e-03  1.6741966594553306e-03  1.6743227720460703e-03  1.6745258256370553e-03  1.6748187882764138e-03  1.6751868824965276e-03  1.6755944556454991e-03  1.6759829167364464e-03  1.6762679669638674e-03  1.6763706924616023e-03  1.6762690452762933e-03  1.6760029023826586e-03  1.6756384912041985e-03  1.6752573455923120e-03  1.6749248741658065e-03  1.6746677462633598e-03  1.6744824166111132e-03  1.6743534135810710e-03  1.6742656860618155e-03  1.6742092792718373e-03  1.6741798675559596e-03  1.6741781946352308e-03  1.6742096386341272e-03  1.6742835946689820e-03  1.6744111836058163e-03  1.6745986177759190e-03  1.6748327727835013e-03  1.6750637992584631e-03  1.6752149863978898e-03  1.6752382470505381e-03  1.6751512936845762e-03  1.6750057919781842e-03  1.6748438864671355e-03  1.6746837878309630e-03  1.6745307215300835e-03  1.6743915889773360e-03  1.6742756034503594e-03  1.6741875400547697e-03  1.6741260692133266e-03  1.6740860957576143e-03  1.6740615975516721e-03  1.6740473580008236e-03  1.6740395770258819e-03  1.6740358531638112e-03  3.3424552918340910e-03  3.3424457835433126e-03  1.6740296672358558e-03  1.6740296672361141e-03  1.6740296672365755e-03  1.6740296672373193e-03  1.6740296672384614e-03  1.6740296672401614e-03  1.6740296672426379e-03  1.6740296672461750e-03  1.6740296672511275e-03  1.6740296672579419e-03  1.6740296672671502e-03  1.6740296672793727e-03  1.6740296672953334e-03  1.6740296673158567e-03  1.6740296673418704e-03  1.6740296673744359e-03  1.6740296674147856e-03  1.6740296674643501e-03  1.6740296675248464e-03  1.6740296675983673e-03  1.6740296676874681e-03  1.6740296677953174e-03  1.6740296679258501e-03  1.6740296680839259e-03  1.6740296682755602e-03  1.6740296685081775e-03  1.6740296687909027e-03  1.6740296691349450e-03  1.6740296695540314e-03  1.6740296700649953e-03  1.6740296706884909e-03  1.6740296714499064e-03  1.6740296723806584e-03  1.6740296735200378e-03  1.6740296749180651e-03  1.6740296766403386e-03  1.6740296787767517e-03  1.6740296814581411e-03  1.6740296848895997e-03  1.6740296894188354e-03  1.6740296956789379e-03  1.6740297048894485e-03  1.6740297194935614e-03  1.6740297445068416e-03  1.6740297903632133e-03  1.6740298788847255e-03  1.6740300556937931e-03  1.6740304157097149e-03  1.6740311546851868e-03  1.6740326712012933e-03  1.6740357630456810e-03  1.6740419920762805e-03  1.6740543320288512e-03  1.6740782571196058e-03  1.6741234728457409e-03  1.6742066430693219e-03  1.6743562495129284e-03  1.6746224675678284e-03  1.6750802029904999e-03  1.6757720126074061e-03  1.6766549090723060e-03  1.6776486449066445e-03  1.6786195528404836e-03  1.6793389300943996e-03  1.6795734982881145e-03  1.6792735701007685e-03  1.6785734311720304e-03  1.6776434620578520e-03  1.6767055173757684e-03  1.6759287291993634e-03  1.6753591604412646e-03  1.6749652968044053e-03  1.6746970325976476e-03  1.6745149127743830e-03  1.6743961857525278e-03  1.6743322881153696e-03  1.6743261543622149e-03  1.6743916350655027e-03  1.6745537600178838e-03  1.6748460985426608e-03  1.6752977200680172e-03  1.6758920874289816e-03  1.6764968121622400e-03  1.6768767589450350e-03  1.6768916601379324e-03  1.6766242748411080e-03  1.6762410079792769e-03  1.6758509067601112e-03  1.6754809371041810e-03  1.6751266808413521e-03  1.6748034351030225e-03  1.6745389270600261e-03  1.6743449001553809e-03  1.6742150028087881e-03  1.6741341425679085e-03  1.6740866554718205e-03  1.6740601284076294e-03  1.6740461255290496e-03  1.6740395885545733e-03  3.3424608114844432e-03  3.3424457835447906e-03  1.6740296672366210e-03  1.6740296672371592e-03  1.6740296672381305e-03  1.6740296672397112e-03  1.6740296672421600e-03  1.6740296672458374e-03  1.6740296672512350e-03  1.6740296672589968e-03  1.6740296672699368e-03  1.6740296672850706e-03  1.6740296673056149e-03  1.6740296673329956e-03  1.6740296673688614e-03  1.6740296674150859e-03  1.6740296674737762e-03  1.6740296675473276e-03  1.6740296676384981e-03  1.6740296677504988e-03  1.6740296678871725e-03  1.6740296680531938e-03  1.6740296682543000e-03  1.6740296684976039e-03  1.6740296687919429e-03  1.6740296691482601e-03  1.6740296695801034e-03  1.6740296701041914e-03  1.6740296707410836e-03  1.6740296715160225e-03  1.6740296724599244e-03  1.6740296736106465e-03  1.6740296750145458e-03  1.6740296767284411e-03  1.6740296788222543e-03  1.6740296813826322e-03  1.6740296845182570e-03  1.6740296883683066e-03  1.6740296931169001e-03  1.6740296990195907e-03  1.6740297064549031e-03  1.6740297160285718e-03  1.6740297287902192e-03  1.6740297466914587e-03  1.6740297735634943e-03  1.6740298172128495e-03  1.6740298939178159e-03  1.6740300380540312e-03  1.6740303225949243e-03  1.6740309024139452e-03  1.6740321046516261e-03  1.6740346141169795e-03  1.6740398447292733e-03  1.6740506593190918e-03  1.6740727003109826e-03  1.6741166873532711e-03  1.6742020000420517e-03  1.6743617342986959e-03  1.6746515253463507e-03  1.6751807448057725e-03  1.6761580233755585e-03  1.6777037336939873e-03  1.6796715768447287e-03  1.6819378907327925e-03  1.6843366983102350e-03  1.6863137855213477e-03  1.6870464081878828e-03  1.6862983395894906e-03  1.6845194026239507e-03  1.6821435866797851e-03  1.6798252099196119e-03  1.6780246699941480e-03  1.6767857772509085e-03  1.6759647957530102e-03  1.6754132505021624e-03  1.6750351030312088e-03  1.6747826532490797e-03  1.6746408425008209e-03  1.6746186465687015e-03  1.6747495342557817e-03  1.6750966166548247e-03  1.6757547447728638e-03  1.6768349189184139e-03  1.6783576740262058e-03  1.6799760964236231e-03  1.6809412225043644e-03  1.6808320728991190e-03  1.6800114156187414e-03  1.6790111026162961e-03  1.6780949248092602e-03  1.6772598003231859e-03  1.6764398000226892e-03  1.6756801587715765e-03  1.6750743218673055e-03  1.6746493961642120e-03  1.6743789066512584e-03  1.6742187139761123e-03  1.6741289259352738e-03  1.6740808394335299e-03  1.6740563530399540e-03  1.6740452096859954e-03  3.3424690486279132e-03  3.3424457835477348e-03  1.6740296672381574e-03  1.6740296672392875e-03  1.6740296672413421e-03  1.6740296672447116e-03  1.6740296672499728e-03  1.6740296672579354e-03  1.6740296672697089e-03  1.6740296672867546e-03  1.6740296673109342e-03  1.6740296673445655e-03  1.6740296673904381e-03  1.6740296674518263e-03  1.6740296675324990e-03  1.6740296676367224e-03  1.6740296677692835e-03  1.6740296679355884e-03  1.6740296681418245e-03  1.6740296683951938e-03  1.6740296687042949e-03  1.6740296690795917e-03  1.6740296695339587e-03  1.6740296700833797e-03  1.6740296707477328e-03  1.6740296715516798e-03  1.6740296725257630e-03  1.6740296737076813e-03  1.6740296751438103e-03  1.6740296768910775e-03  1.6740296790192012e-03  1.6740296816134862e-03  1.6740296847782543e-03  1.6740296886411266e-03  1.6740296933585896e-03  1.6740296991233847e-03  1.6740297061748454e-03  1.6740297148144024e-03  1.6740297254305375e-03  1.6740297385421923e-03  1.6740297548797464e-03  1.6740297755443846e-03  1.6740298023343212e-03  1.6740298384304647e-03  1.6740298898617633e-03  1.6740299686690526e-03  1.6740300997749845e-03  1.6740303359349808e-03  1.6740307902563339e-03  1.6740317066900056e-03  1.6740336118223021e-03  1.6740376381804650e-03  1.6740462012466660e-03  1.6740643803227380e-03  1.6741026181118560e-03  1.6741815870263970e-03  1.6743391436265086e-03  1.6746345718397259e-03  1.6751436503093544e-03  1.6759842302433933e-03  2.5170979744877919e-03  3.3684980159046363e-03  3.3825985318118208e-03  3.3985590421006908e-03  3.4174114527406024e-03  3.4377168472798317e-03  2.5696596335166733e-03  1.7006557114676367e-03  1.6975466775796923e-03  1.6920424231354728e-03  1.6863883984333662e-03  1.6822990824132444e-03  1.6796896183190321e-03  1.6780273122769019e-03  1.6769088107927677e-03  1.6761223666879467e-03  1.6755801074896496e-03  1.6752603567210206e-03  1.6751863767763889e-03  1.6754335409113060e-03  1.6761510480844946e-03  1.6775829176422575e-03  1.6800770304673570e-03  1.6838339333616541e-03  1.6879564910537992e-03  1.6901992002618358e-03  1.6894105332219418e-03  1.6870163240675028e-03  1.6845895457571257e-03  1.6826831116064308e-03  1.6810423984568862e-03  1.6792701509020999e-03  1.6775070693770735e-03  1.6761282140685162e-03  1.6752135961166583e-03  1.6746657634546414e-03  1.6743592469533736e-03  1.6741959726995020e-03  1.6741123400801617e-03  1.6740713101282077e-03  1.6740531207336848e-03  3.3424805230977948e-03  3.3424457835535978e-03  1.6740296672412391e-03  1.6740296672436131e-03  1.6740296672479557e-03  1.6740296672551282e-03  1.6740296672664101e-03  1.6740296672836208e-03  1.6740296673092602e-03  1.6740296673466420e-03  1.6740296674000199e-03  1.6740296674746964e-03  1.6740296675770735e-03  1.6740296677146709e-03  1.6740296678961208e-03  1.6740296681311566e-03  1.6740296684306531e-03  1.6740296688068116e-03  1.6740296692735195e-03  1.6740296698469098e-03  1.6740296705462154e-03  1.6740296713948491e-03  1.6740296724216967e-03  1.6740296736626767e-03  1.6740296751625197e-03  1.6740296769768115e-03  1.6740296791744260e-03  1.6740296818404008e-03  1.6740296850793774e-03  1.6740296890197955e-03  1.6740296938189481e-03  1.6740296996692026e-03  1.6740297068056147e-03  1.6740297155153697e-03  1.6740297261497686e-03  1.6740297391397603e-03  1.6740297550168577e-03  1.6740297744429061e-03  1.6740297982552430e-03  1.6740298275406027e-03  1.6740298637656437e-03  1.6740299090232606e-03  1.6740299665225383e-03  1.6740300416010936e-03  1.6740301438716298e-03  1.6740302918534687e-03  1.6740305230820017e-03  1.6740309163419786e-03  1.6740316407933438e-03  1.6740330647686237e-03  1.6740359967060056e-03  1.6740422171306849e-03  1.6740556451262259e-03  1.6740848619383678e-03  1.6741484220387938e-03  1.6742849811105275e-03  1.6745639859129607e-03  1.6750692925729825e-03  2.5129868864142693e-03  3.3536787531010985e-03  5.0382479425523990e-03  7.4835948827028720e-01  8.0672530880095572e-01  8.4070060470114960e-01  8.6980525045064105e-01  8.9241587579204240e-01  9.2306650792636447e-01  5.4147384406520371e-03  2.6091525496847717e-03  1.7110637895735722e-03  1.6995245259599054e-03  1.6907829965446184e-03  1.6855669312899892e-03  1.6823150505691450e-03  1.6800616424731481e-03  1.6784085960406168e-03  1.6772274014770698e-03  1.6764979087510378e-03  1.6762710211885355e-03  1.6767032640363510e-03  1.6781196080153469e-03  1.6810284658660816e-03  1.6860754562432994e-03  1.6936656743406773e-03  2.5725642575709878e-03  3.4732896090717814e-03  3.4604839453054553e-03  3.4357299261825341e-03  3.4154822570119114e-03  3.4027990568342215e-03  3.3941702758170287e-03  2.5320830556290561e-03  1.6809846425369821e-03  1.6780937541477825e-03  1.6761994432755696e-03  1.6751359031550973e-03  1.6745769873925853e-03  1.6742949296408070e-03  1.6741569096468656e-03  1.6740916789086270e-03  1.6740635031035698e-03  3.3424954391612373e-03  3.3424457835652143e-03  1.6740296672473930e-03  1.6740296672523673e-03  1.6740296672615169e-03  1.6740296672767324e-03  1.6740296673008522e-03  1.6740296673379456e-03  1.6740296673936432e-03  1.6740296674754612e-03  1.6740296675931056e-03  1.6740296677587236e-03  1.6740296679870227e-03  1.6740296682952892e-03  1.6740296687033252e-03  1.6740296692333658e-03  1.6740296699101218e-03  1.6740296707611353e-03  1.6740296718175656e-03  1.6740296731155063e-03  1.6740296746979373e-03  1.6740296766172274e-03  1.67402967893