<?xml version="1.0"?>
<VTKFile type="UnstructuredGrid"  version="0.1"  >
<UnstructuredGrid>
<Piece  NumberOfPoints="5151" NumberOfCells="10000">
<Points>
<DataArray  type="Float64"  NumberOfComponents="3"  format="ascii">0 0 0  0.02 0 0  0.04 0 0  0.06 0 0  0.08 0 0  0.1 0 0  0.12 0 0  0.14 0 0  0.16 0 0  0.18 0 0  0.2 0 0  0.22 0 0  0.24 0 0  0.26 0 0  0.28 0 0  0.3 0 0  0.32 0 0  0.34 0 0  0.36 0 0  0.38 0 0  0.4 0 0  0.42 0 0  0.44 0 0  0.46 0 0  0.48 0 0  0.5 0 0  0.52 0 0  0.54 0 0  0.5600000000000001 0 0  0.58 0 0  0.6 0 0  0.62 0 0  0.64 0 0  0.66 0 0  0.68 0 0  0.7 0 0  0.72 0 0  0.74 0 0  0.76 0 0  0.78 0 0  0.8 0 0  0.82 0 0  0.84 0 0  0.86 0 0  0.88 0 0  0.9 0 0  0.92 0 0  0.9399999999999999 0 0  0.96 0 0  0.98 0 0  1 0 0  1.02 0 0  1.04 0 0  1.06 0 0  1.08 0 0  1.1 0 0  1.12 0 0  1.14 0 0  1.16 0 0  1.18 0 0  1.2 0 0  1.22 0 0  1.24 0 0  1.26 0 0  1.28 0 0  1.3 0 0  1.32 0 0  1.34 0 0  1.36 0 0  1.38 0 0  1.4 0 0  1.42 0 0  1.44 0 0  1.46 0 0  1.48 0 0  1.5 0 0  1.52 0 0  1.54 0 0  1.56 0 0  1.58 0 0  1.6 0 0  1.62 0 0  1.64 0 0  1.66 0 0  1.68 0 0  1.7 0 0  1.72 0 0  1.74 0 0  1.76 0 0  1.78 0 0  1.8 0 0  1.82 0 0  1.84 0 0  1.86 0 0  1.88 0 0  1.9 0 0  1.92 0 0  1.94 0 0  1.96 0 0  1.98 0 0  2 0 0  0 0.02 0  0.02 0.02 0  0.04 0.02 0  0.06 0.02 0  0.08 0.02 0  0.1 0.02 0  0.12 0.02 0  0.14 0.02 0  0.16 0.02 0  0.18 0.02 0  0.2 0.02 0  0.22 0.02 0  0.24 0.02 0  0.26 0.02 0  0.28 0.02 0  0.3 0.02 0  0.32 0.02 0  0.34 0.02 0  0.36 0.02 0  0.38 0.02 0  0.4 0.02 0  0.42 0.02 0  0.44 0.02 0  0.46 0.02 0  0.48 0.02 0  0.5 0.02 0  0.52 0.02 0  0.54 0.02 0  0.5600000000000001 0.02 0  0.58 0.02 0  0.6 0.02 0  0.62 0.02 0  0.64 0.02 0  0.66 0.02 0  0.68 0.02 0  0.7 0.02 0  0.72 0.02 0  0.74 0.02 0  0.76 0.02 0  0.78 0.02 0  0.8 0.02 0  0.82 0.02 0  0.84 0.02 0  0.86 0.02 0  0.88 0.02 0  0.9 0.02 0  0.92 0.02 0  0.9399999999999999 0.02 0  0.96 0.02 0  0.98 0.02 0  1 0.02 0  1.02 0.02 0  1.04 0.02 0  1.06 0.02 0  1.08 0.02 0  1.1 0.02 0  1.12 0.02 0  1.14 0.02 0  1.16 0.02 0  1.18 0.02 0  1.2 0.02 0  1.22 0.02 0  1.24 0.02 0  1.26 0.02 0  1.28 0.02 0  1.3 0.02 0  1.32 0.02 0  1.34 0.02 0  1.36 0.02 0  1.38 0.02 0  1.4 0.02 0  1.42 0.02 0  1.44 0.02 0  1.46 0.02 0  1.48 0.02 0  1.5 0.02 0  1.52 0.02 0  1.54 0.02 0  1.56 0.02 0  1.58 0.02 0  1.6 0.02 0  1.62 0.02 0  1.64 0.02 0  1.66 0.02 0  1.68 0.02 0  1.7 0.02 0  1.72 0.02 0  1.74 0.02 0  1.76 0.02 0  1.78 0.02 0  1.8 0.02 0  1.82 0.02 0  1.84 0.02 0  1.86 0.02 0  1.88 0.02 0  1.9 0.02 0  1.92 0.02 0  1.94 0.02 0  1.96 0.02 0  1.98 0.02 0  2 0.02 0  0 0.04 0  0.02 0.04 0  0.04 0.04 0  0.06 0.04 0  0.08 0.04 0  0.1 0.04 0  0.12 0.04 0  0.14 0.04 0  0.16 0.04 0  0.18 0.04 0  0.2 0.04 0  0.22 0.04 0  0.24 0.04 0  0.26 0.04 0  0.28 0.04 0  0.3 0.04 0  0.32 0.04 0  0.34 0.04 0  0.36 0.04 0  0.38 0.04 0  0.4 0.04 0  0.42 0.04 0  0.44 0.04 0  0.46 0.04 0  0.48 0.04 0  0.5 0.04 0  0.52 0.04 0  0.54 0.04 0  0.5600000000000001 0.04 0  0.58 0.04 0  0.6 0.04 0  0.62 0.04 0  0.64 0.04 0  0.66 0.04 0  0.68 0.04 0  0.7 0.04 0  0.72 0.04 0  0.74 0.04 0  0.76 0.04 0  0.78 0.04 0  0.8 0.04 0  0.82 0.04 0  0.84 0.04 0  0.86 0.04 0  0.88 0.04 0  0.9 0.04 0  0.92 0.04 0  0.9399999999999999 0.04 0  0.96 0.04 0  0.98 0.04 0  1 0.04 0  1.02 0.04 0  1.04 0.04 0  1.06 0.04 0  1.08 0.04 0  1.1 0.04 0  1.12 0.04 0  1.14 0.04 0  1.16 0.04 0  1.18 0.04 0  1.2 0.04 0  1.22 0.04 0  1.24 0.04 0  1.26 0.04 0  1.28 0.04 0  1.3 0.04 0  1.32 0.04 0  1.34 0.04 0  1.36 0.04 0  1.38 0.04 0  1.4 0.04 0  1.42 0.04 0  1.44 0.04 0  1.46 0.04 0  1.48 0.04 0  1.5 0.04 0  1.52 0.04 0  1.54 0.04 0  1.56 0.04 0  1.58 0.04 0  1.6 0.04 0  1.62 0.04 0  1.64 0.04 0  1.66 0.04 0  1.68 0.04 0  1.7 0.04 0  1.72 0.04 0  1.74 0.04 0  1.76 0.04 0  1.78 0.04 0  1.8 0.04 0  1.82 0.04 0  1.84 0.04 0  1.86 0.04 0  1.88 0.04 0  1.9 0.04 0  1.92 0.04 0  1.94 0.04 0  1.96 0.04 0  1.98 0.04 0  2 0.04 0  0 0.06 0  0.02 0.06 0  0.04 0.06 0  0.06 0.06 0  0.08 0.06 0  0.1 0.06 0  0.12 0.06 0  0.14 0.06 0  0.16 0.06 0  0.18 0.06 0  0.2 0.06 0  0.22 0.06 0  0.24 0.06 0  0.26 0.06 0  0.28 0.06 0  0.3 0.06 0  0.32 0.06 0  0.34 0.06 0  0.36 0.06 0  0.38 0.06 0  0.4 0.06 0  0.42 0.06 0  0.44 0.06 0  0.46 0.06 0  0.48 0.06 0  0.5 0.06 0  0.52 0.06 0  0.54 0.06 0  0.5600000000000001 0.06 0  0.58 0.06 0  0.6 0.06 0  0.62 0.06 0  0.64 0.06 0  0.66 0.06 0  0.68 0.06 0  0.7 0.06 0  0.72 0.06 0  0.74 0.06 0  0.76 0.06 0  0.78 0.06 0  0.8 0.06 0  0.82 0.06 0  0.84 0.06 0  0.86 0.06 0  0.88 0.06 0  0.9 0.06 0  0.92 0.06 0  0.9399999999999999 0.06 0  0.96 0.06 0  0.98 0.06 0  1 0.06 0  1.02 0.06 0  1.04 0.06 0  1.06 0.06 0  1.08 0.06 0  1.1 0.06 0  1.12 0.06 0  1.14 0.06 0  1.16 0.06 0  1.18 0.06 0  1.2 0.06 0  1.22 0.06 0  1.24 0.06 0  1.26 0.06 0  1.28 0.06 0  1.3 0.06 0  1.32 0.06 0  1.34 0.06 0  1.36 0.06 0  1.38 0.06 0  1.4 0.06 0  1.42 0.06 0  1.44 0.06 0  1.46 0.06 0  1.48 0.06 0  1.5 0.06 0  1.52 0.06 0  1.54 0.06 0  1.56 0.06 0  1.58 0.06 0  1.6 0.06 0  1.62 0.06 0  1.64 0.06 0  1.66 0.06 0  1.68 0.06 0  1.7 0.06 0  1.72 0.06 0  1.74 0.06 0  1.76 0.06 0  1.78 0.06 0  1.8 0.06 0  1.82 0.06 0  1.84 0.06 0  1.86 0.06 0  1.88 0.06 0  1.9 0.06 0  1.92 0.06 0  1.94 0.06 0  1.96 0.06 0  1.98 0.06 0  2 0.06 0  0 0.08 0  0.02 0.08 0  0.04 0.08 0  0.06 0.08 0  0.08 0.08 0  0.1 0.08 0  0.12 0.08 0  0.14 0.08 0  0.16 0.08 0  0.18 0.08 0  0.2 0.08 0  0.22 0.08 0  0.24 0.08 0  0.26 0.08 0  0.28 0.08 0  0.3 0.08 0  0.32 0.08 0  0.34 0.08 0  0.36 0.08 0  0.38 0.08 0  0.4 0.08 0  0.42 0.08 0  0.44 0.08 0  0.46 0.08 0  0.48 0.08 0  0.5 0.08 0  0.52 0.08 0  0.54 0.08 0  0.5600000000000001 0.08 0  0.58 0.08 0  0.6 0.08 0  0.62 0.08 0  0.64 0.08 0  0.66 0.08 0  0.68 0.08 0  0.7 0.08 0  0.72 0.08 0  0.74 0.08 0  0.76 0.08 0  0.78 0.08 0  0.8 0.08 0  0.82 0.08 0  0.84 0.08 0  0.86 0.08 0  0.88 0.08 0  0.9 0.08 0  0.92 0.08 0  0.9399999999999999 0.08 0  0.96 0.08 0  0.98 0.08 0  1 0.08 0  1.02 0.08 0  1.04 0.08 0  1.06 0.08 0  1.08 0.08 0  1.1 0.08 0  1.12 0.08 0  1.14 0.08 0  1.16 0.08 0  1.18 0.08 0  1.2 0.08 0  1.22 0.08 0  1.24 0.08 0  1.26 0.08 0  1.28 0.08 0  1.3 0.08 0  1.32 0.08 0  1.34 0.08 0  1.36 0.08 0  1.38 0.08 0  1.4 0.08 0  1.42 0.08 0  1.44 0.08 0  1.46 0.08 0  1.48 0.08 0  1.5 0.08 0  1.52 0.08 0  1.54 0.08 0  1.56 0.08 0  1.58 0.08 0  1.6 0.08 0  1.62 0.08 0  1.64 0.08 0  1.66 0.08 0  1.68 0.08 0  1.7 0.08 0  1.72 0.08 0  1.74 0.08 0  1.76 0.08 0  1.78 0.08 0  1.8 0.08 0  1.82 0.08 0  1.84 0.08 0  1.86 0.08 0  1.88 0.08 0  1.9 0.08 0  1.92 0.08 0  1.94 0.08 0  1.96 0.08 0  1.98 0.08 0  2 0.08 0  0 0.1 0  0.02 0.1 0  0.04 0.1 0  0.06 0.1 0  0.08 0.1 0  0.1 0.1 0  0.12 0.1 0  0.14 0.1 0  0.16 0.1 0  0.18 0.1 0  0.2 0.1 0  0.22 0.1 0  0.24 0.1 0  0.26 0.1 0  0.28 0.1 0  0.3 0.1 0  0.32 0.1 0  0.34 0.1 0  0.36 0.1 0  0.38 0.1 0  0.4 0.1 0  0.42 0.1 0  0.44 0.1 0  0.46 0.1 0  0.48 0.1 0  0.5 0.1 0  0.52 0.1 0  0.54 0.1 0  0.5600000000000001 0.1 0  0.58 0.1 0  0.6 0.1 0  0.62 0.1 0  0.64 0.1 0  0.66 0.1 0  0.68 0.1 0  0.7 0.1 0  0.72 0.1 0  0.74 0.1 0  0.76 0.1 0  0.78 0.1 0  0.8 0.1 0  0.82 0.1 0  0.84 0.1 0  0.86 0.1 0  0.88 0.1 0  0.9 0.1 0  0.92 0.1 0  0.9399999999999999 0.1 0  0.96 0.1 0  0.98 0.1 0  1 0.1 0  1.02 0.1 0  1.04 0.1 0  1.06 0.1 0  1.08 0.1 0  1.1 0.1 0  1.12 0.1 0  1.14 0.1 0  1.16 0.1 0  1.18 0.1 0  1.2 0.1 0  1.22 0.1 0  1.24 0.1 0  1.26 0.1 0  1.28 0.1 0  1.3 0.1 0  1.32 0.1 0  1.34 0.1 0  1.36 0.1 0  1.38 0.1 0  1.4 0.1 0  1.42 0.1 0  1.44 0.1 0  1.46 0.1 0  1.48 0.1 0  1.5 0.1 0  1.52 0.1 0  1.54 0.1 0  1.56 0.1 0  1.58 0.1 0  1.6 0.1 0  1.62 0.1 0  1.64 0.1 0  1.66 0.1 0  1.68 0.1 0  1.7 0.1 0  1.72 0.1 0  1.74 0.1 0  1.76 0.1 0  1.78 0.1 0  1.8 0.1 0  1.82 0.1 0  1.84 0.1 0  1.86 0.1 0  1.88 0.1 0  1.9 0.1 0  1.92 0.1 0  1.94 0.1 0  1.96 0.1 0  1.98 0.1 0  2 0.1 0  0 0.12 0  0.02 0.12 0  0.04 0.12 0  0.06 0.12 0  0.08 0.12 0  0.1 0.12 0  0.12 0.12 0  0.14 0.12 0  0.16 0.12 0  0.18 0.12 0  0.2 0.12 0  0.22 0.12 0  0.24 0.12 0  0.26 0.12 0  0.28 0.12 0  0.3 0.12 0  0.32 0.12 0  0.34 0.12 0  0.36 0.12 0  0.38 0.12 0  0.4 0.12 0  0.42 0.12 0  0.44 0.12 0  0.46 0.12 0  0.48 0.12 0  0.5 0.12 0  0.52 0.12 0  0.54 0.12 0  0.5600000000000001 0.12 0  0.58 0.12 0  0.6 0.12 0  0.62 0.12 0  0.64 0.12 0  0.66 0.12 0  0.68 0.12 0  0.7 0.12 0  0.72 0.12 0  0.74 0.12 0  0.76 0.12 0  0.78 0.12 0  0.8 0.12 0  0.82 0.12 0  0.84 0.12 0  0.86 0.12 0  0.88 0.12 0  0.9 0.12 0  0.92 0.12 0  0.9399999999999999 0.12 0  0.96 0.12 0  0.98 0.12 0  1 0.12 0  1.02 0.12 0  1.04 0.12 0  1.06 0.12 0  1.08 0.12 0  1.1 0.12 0  1.12 0.12 0  1.14 0.12 0  1.16 0.12 0  1.18 0.12 0  1.2 0.12 0  1.22 0.12 0  1.24 0.12 0  1.26 0.12 0  1.28 0.12 0  1.3 0.12 0  1.32 0.12 0  1.34 0.12 0  1.36 0.12 0  1.38 0.12 0  1.4 0.12 0  1.42 0.12 0  1.44 0.12 0  1.46 0.12 0  1.48 0.12 0  1.5 0.12 0  1.52 0.12 0  1.54 0.12 0  1.56 0.12 0  1.58 0.12 0  1.6 0.12 0  1.62 0.12 0  1.64 0.12 0  1.66 0.12 0  1.68 0.12 0  1.7 0.12 0  1.72 0.12 0  1.74 0.12 0  1.76 0.12 0  1.78 0.12 0  1.8 0.12 0  1.82 0.12 0  1.84 0.12 0  1.86 0.12 0  1.88 0.12 0  1.9 0.12 0  1.92 0.12 0  1.94 0.12 0  1.96 0.12 0  1.98 0.12 0  2 0.12 0  0 0.14 0  0.02 0.14 0  0.04 0.14 0  0.06 0.14 0  0.08 0.14 0  0.1 0.14 0  0.12 0.14 0  0.14 0.14 0  0.16 0.14 0  0.18 0.14 0  0.2 0.14 0  0.22 0.14 0  0.24 0.14 0  0.26 0.14 0  0.28 0.14 0  0.3 0.14 0  0.32 0.14 0  0.34 0.14 0  0.36 0.14 0  0.38 0.14 0  0.4 0.14 0  0.42 0.14 0  0.44 0.14 0  0.46 0.14 0  0.48 0.14 0  0.5 0.14 0  0.52 0.14 0  0.54 0.14 0  0.5600000000000001 0.14 0  0.58 0.14 0  0.6 0.14 0  0.62 0.14 0  0.64 0.14 0  0.66 0.14 0  0.68 0.14 0  0.7 0.14 0  0.72 0.14 0  0.74 0.14 0  0.76 0.14 0  0.78 0.14 0  0.8 0.14 0  0.82 0.14 0  0.84 0.14 0  0.86 0.14 0  0.88 0.14 0  0.9 0.14 0  0.92 0.14 0  0.9399999999999999 0.14 0  0.96 0.14 0  0.98 0.14 0  1 0.14 0  1.02 0.14 0  1.04 0.14 0  1.06 0.14 0  1.08 0.14 0  1.1 0.14 0  1.12 0.14 0  1.14 0.14 0  1.16 0.14 0  1.18 0.14 0  1.2 0.14 0  1.22 0.14 0  1.24 0.14 0  1.26 0.14 0  1.28 0.14 0  1.3 0.14 0  1.32 0.14 0  1.34 0.14 0  1.36 0.14 0  1.38 0.14 0  1.4 0.14 0  1.42 0.14 0  1.44 0.14 0  1.46 0.14 0  1.48 0.14 0  1
[...]
<PointData  Scalars="sols[i]"> 
<DataArray  type="Float64"  Name="sols[i]"  format="ascii">3.5189826081548142e-01  2.9877684081933037e-01  2.9877686141882742e-01  2.9877689748962460e-01  2.9877695371196489e-01  2.9877703850083326e-01  2.9877716447167402e-01  2.9877734748156953e-01  2.9877760566283945e-01  2.9877795930935402e-01  2.9877843194293380e-01  2.9877905260962756e-01  2.9877985926529582e-01  2.9878090293848286e-01  2.9878225220877946e-01  2.9878399743030032e-01  2.9878625408089349e-01  2.9878916464213584e-01  2.9879289852086649e-01  2.9879764970862371e-01  2.9880363212737321e-01  2.9881107290145914e-01  2.9882020408832433e-01  2.9883125364960633e-01  2.9884443660619081e-01  2.9885994736238147e-01  2.9887795408931428e-01  2.9889859583162476e-01  2.9892198267180425e-01  2.9894819889881558e-01  2.9897730873708078e-01  2.9900936385606136e-01  2.9904441164879303e-01  2.9908250317279023e-01  2.9912369969919789e-01  2.9916807700205111e-01  2.9921572680410252e-01  2.9926675513012130e-01  2.9932127764935651e-01  2.9937941236572962e-01  2.9944127019639333e-01  2.9950694403924344e-01  2.9957649685620874e-01  2.9964994909853998e-01  2.9972726550140449e-01  2.9980834092985748e-01  2.9989298464360092e-01  2.9998090216309981e-01  3.0007167397982970e-01  3.0016473077769962e-01  3.0025932572227143e-01  3.0035450577290146e-01  3.0044908580071367e-01  3.0054163126242278e-01  3.0063045672065825e-01  3.0071364781757370e-01  3.0078911262067798e-01  3.0085466426240759e-01  3.0090813109085435e-01  3.0094748469717608e-01  3.0097097213196239e-01  3.0097723771967394e-01  3.0096542210687055e-01  3.0093523004619699e-01  3.0088696212933347e-01  3.0082150855598044e-01  3.0074030557004677e-01  3.0064525805953579e-01  3.0053863501965022e-01  3.0042294747716963e-01  3.0030082020922272e-01  3.0017486859102371e-01  3.0004759016017057e-01  2.9992127748895919e-01  2.9979795548428090e-01  2.9967934304300570e-01  2.9956683659772770e-01  2.9946151168865603e-01  2.9936413820707580e-01  2.9927520512427391e-01  2.9919495105768734e-01  2.9912339769549640e-01  2.9906038375704308e-01  2.9900559775401486e-01  2.9895860834018356e-01  2.9891889152148587e-01  2.9888585446036769e-01  2.9885885604264967e-01  2.9883722475319008e-01  2.9882027468628825e-01  2.9880732065169707e-01  2.9879769328207501e-01  2.9879075476366884e-01  2.9878591527763732e-01  2.9878264947652566e-01  2.9878051143427120e-01  2.9877914573231529e-01  2.9877829207713857e-01  2.9877778157260954e-01  2.9877752339602665e-01  4.1898758513436496e-01  2.9877684311396185e-01  1.9776465690013373e-01  1.9776466472312121e-01  1.9776468015490345e-01  1.9776470673216726e-01  1.9776474993984849e-01  1.9776481797146520e-01  1.9776492256945946e-01  1.9776507998803483e-01  1.9776531217733181e-01  1.9776564822521134e-01  1.9776612603052401e-01  1.9776679412850973e-01  1.9776771353996270e-01  1.9776895947392042e-01  1.9777062268541346e-01  1.9777281028200119e-01  1.9777564579090956e-01  1.9777926834571163e-01  1.9778383092714236e-01  1.9778949769159909e-01  1.9779644053290885e-01  1.9780483513334951e-01  1.9781485685139860e-01  1.9782667684899108e-01  1.9784045886620996e-01  1.9785635699879620e-01  1.9787451472422171e-01  1.9789506526543896e-01  1.9791813319605206e-01  1.9794383700088827e-01  1.9797229213862289e-01  1.9800361403346370e-01  1.9803792036999343e-01  1.9807533208844971e-01  1.9811597257509878e-01  1.9815996470155306e-01  1.9820742556783588e-01  1.9825845902254061e-01  1.9831314624433438e-01  1.9837153484830936e-01  1.9843362710715784e-01  1.9849936793413520e-01  1.9856863325172527e-01  1.9864121926644845e-01  1.9871683299936652e-01  1.9879508421386313e-01  1.9887547868591621e-01  1.9895741264049899e-01  1.9904016819767956e-01  1.9912290988503686e-01  1.9920468269137775e-01  1.9928441271056208e-01  1.9936091203099479e-01  1.9943288998394501e-01  1.9949897297317901e-01  1.9955773471669627e-01  1.9960773779416721e-01  1.9964758601036825e-01  1.9967598549332966e-01  1.9969181095323513e-01  1.9969417239379855e-01  1.9968247695671290e-01  1.9965648038188091e-01  1.9961632263915013e-01  1.9956254290009925e-01  1.9949607060862151e-01  1.9941819195825392e-01  1.9933049404045822e-01  1.9923479158771901e-01  1.9913304306060406e-01  1.9902726356176809e-01  1.9891944169888945e-01  1.9881146625034213e-01  1.9870506663841034e-01  1.9860176918236502e-01  1.9850286925852401e-01  1.9840941808938542e-01  1.9832222201180436e-01  1.9824185168733410e-01  1.9816865868804134e-01  1.9810279707582934e-01  1.9804424788263864e-01  1.9799284473214407e-01  1.9794829920026488e-01  1.9791022489037868e-01  1.9787815959488181e-01  1.9785158530728833e-01  1.9782994620188962e-01  1.9781266496580965e-01  1.9779915800634107e-01  1.9778885002752464e-01  1.9778118825186178e-01  1.9777565616412199e-01  1.9777178614559202e-01  1.9776916993348714e-01  1.9776746581681412e-01  1.9776640225231940e-01  1.9776577886369076e-01  1.9776546288424715e-01  2.9877752634407390e-01  2.9877687093751393e-01  1.9776466484504523e-01  1.9776467570521242e-01  1.9776469750691900e-01  1.9776473511094614e-01  1.9776479555877149e-01  1.9776488845196752e-01  1.9776502670853074e-01  1.9776522754924289e-01  1.9776551361016140e-01  1.9776591412667840e-01  1.9776646614315715e-01  1.9776721568760064e-01  1.9776821882758183e-01  1.9776954250347423e-01  1.9777126502587752e-01  1.9777347613072566e-01  1.9777627650992272e-01  1.9777977677698885e-01  1.9778409588290752e-01  1.9778935906117778e-01  1.9779569544479630e-01  1.9780323555206170e-01  1.9781210887334960e-01  1.9782244179965258e-01  1.9783435611100555e-01  1.9784796818824432e-01  1.9786338902831507e-01  1.9788072503915699e-01  1.9790007947604907e-01  1.9792155427081976e-01  1.9794525191324472e-01  1.9797127698443312e-01  1.9799973692567699e-01  1.9803074165811685e-01  1.9806440174710394e-01  1.9810082492269288e-01  1.9814011091204187e-01  1.9818234469541304e-01  1.9822758844808647e-01  1.9827587255868559e-01  1.9832718620421333e-01  1.9838146800060083e-01  1.9843859722690185e-01  1.9849838604149481e-01  1.9856057298013247e-01  1.9862481787055819e-01  1.9869069815048243e-01  1.9875770647657889e-01  1.9882524950334404e-01  1.9889264782171609e-01  1.9895913728161427e-01  1.9902387224545456e-01  1.9908593165545424e-01  1.9914432904025955e-01  1.9919802762800076e-01  1.9924596150068463e-01  1.9928706321505582e-01  1.9932029760852354e-01  1.9934470076344071e-01  1.9935942247504540e-01  1.9936377010183295e-01  1.9935725134435187e-01  1.9933961296874306e-01  1.9931087163978975e-01  1.9927133250637374e-01  1.9922159179692422e-01  1.9916252148188324e-01  1.9909523643803287e-01  1.9902104682393038e-01  1.9894140007869765e-01  1.9885781786652881e-01  1.9877183336470167e-01  1.9868493362215259e-01  1.9859851050641150e-01  1.9851382230303746e-01  1.9843196663508106e-01  1.9835386425333471e-01  1.9828025250976222e-01  1.9821168694927399e-01  1.9814854935000731e-01  1.9809106060178250e-01  1.9803929695033912e-01  1.9799320830401629e-01  1.9795263748641115e-01  1.9791733952740745e-01  1.9788700031728204e-01  1.9786125418942901e-01  1.9783970021358785e-01  1.9782191713074757e-01  1.9780747690430689e-01  1.9779595677837322e-01  1.9778694953702355e-01  1.9778007142520210e-01  1.9777496710957740e-01  1.9777131147080948e-01  1.9776880938610275e-01  1.9776719712140056e-01  1.9776625046188104e-01  1.9776579284572945e-01  2.9877779775916019e-01  2.9877692359039393e-01  1.9776468050575538e-01  1.9776469750032860e-01  1.9776473027671643e-01  1.9776478501741684e-01  1.9776487060371861e-01  1.9776499865616254e-01  1.9776518406187069e-01  1.9776544584433703e-01  1.9776580812094879e-01  1.9776630100178680e-01  1.9776696135029107e-01  1.9776783334928680e-01  1.9776896881869380e-01  1.9777042723283408e-01  1.9777227539560457e-01  1.9777458675428938e-01  1.9777744036654185e-01  1.9778091957616273e-01  1.9778511049556663e-01  1.9779010042875800e-01  1.9779597639091154e-01  1.9780282388374001e-01  1.9781072606711192e-01  1.9781976342785096e-01  1.9783001399078978e-01  1.9784155405172879e-01  1.9785445934440021e-01  1.9786880649069907e-01  1.9788467453091790e-01  1.9790214629302169e-01  1.9792130934114682e-01  1.9794225624703798e-01  1.9796508395575640e-01  1.9798989206783002e-01  1.9801677993106137e-01  1.9804584252209023e-01  1.9807716519513208e-01  1.9811081747621065e-01  1.9814684617663683e-01  1.9818526817841264e-01  1.9822606329493217e-01  1.9826916762249067e-01  1.9831446776541170e-01  1.9836179624018471e-01  1.9841092825015355e-01  1.9846157988868532e-01  1.9851340769933942e-01  1.9856600942406966e-01  1.9861892573084292e-01  1.9867164274709490e-01  1.9872359533555939e-01  1.9877417121361121e-01  1.9882271619613309e-01  1.9886854098436926e-01  1.9891092998473711e-01  1.9894915260056339e-01  1.9898247730587276e-01  1.9901018862829464e-01  1.9903160702930858e-01  1.9904611162826788e-01  1.9905316567456463e-01  1.9905234453993187e-01  1.9904336515802970e-01  1.9902611410030965e-01  1.9900067000182378e-01  1.9896731607814613e-01  1.9892653994289983e-01  1.9887901997830440e-01  1.9882559941986772e-01  1.9876725076111651e-01  1.9870503398288292e-01  1.9864005245394567e-01  1.9857341014009544e-01  1.9850617307365553e-01  1.9843933706230893e-01  1.9837380260014731e-01  1.9831035709455366e-01  1.9824966394861782e-01  1.9819225774088031e-01  1.9813854464889211e-01  1.9808880727242664e-01  1.9804321304684591e-01  1.9800182545847037e-01  1.9796461728175505e-01  1.9793148507559233e-01  1.9790226422469340e-01  1.9787674389096019e-01  1.9785468132141562e-01  1.9783581500164840e-01  1.9781987611286794e-01  1.9780659764452685e-01  1.9779572038969251e-01  1.9778699505685896e-01  1.9778018015553100e-01  1.9777503659585655e-01  1.9777132254898389e-01  1.9776879585356061e-01  1.9776723254802633e-01  1.9776644860862558e-01  2.9877833873933901e-01  2.9877701465624479e-01  1.9776470736220420e-01  1.9776473424792462e-01  1.9776478277678211e-01  1.9776486044240668e-01  1.9776497807284416e-01  1.9776514955498894e-01  1.9776539216752811e-01  1.9776572730935754e-01  1.9776618127253842e-01  1.9776678586325253e-01  1.9776757876761403e-01  1.9776860360233436e-01  1.9776990961148180e-01  1.9777155099043467e-01  1.9777358584661325e-01  1.9777607484558829e-01  1.9777907963722036e-01  1.9778266120248145e-01  1.9778687829816111e-01  1.9779178619382659e-01  1.9779743588543666e-01  1.9780387392983045e-01  1.9781114297656724e-01  1.9781928298683837e-01  1.9782833303666622e-01  1.9783833351788413e-01  1.9784932848779521e-01  1.9786136788472067e-01  1.9787450932408737e-01  1.9788881921574941e-01  1.9790437299292560e-01  1.9792125431015437e-01  1.9793955314387418e-01  1.9795936280591256e-01  1.9798077595110636e-01  1.9800387972366329e-01  1.9802875024436781e-01  1.9805544669410924e-01  1.9808400529698408e-01  1.9811443354236774e-01  1.9814670500059242e-01  1.9818075507155866e-01  1.9821647795315481e-01  1.9825372502605787e-01  1.9829230472999010e-01  1.9833198386776896e-01  1.9837249013724761e-01  1.9841351557991652e-01  1.9845472056919625e-01  1.9849573795509273e-01  1.9853617703705281e-01  1.9857562714213312e-01  1.9861366071876677e-01  1.9864983599223685e-01  1.9868369934962202e-01  1.9871478772771758e-01  1.9874263137642065e-01  1.9876675748860995e-01  1.9878669542174995e-01  1.9880198461898838e-01  1.9881218666867914e-01  1.9881690315771455e-01  1.9881579983908279e-01  1.9880863479016256e-01  1.9879528574314159e-01  1.9877577151629436e-01  1.9875026403821466e-01  1.9871908945365646e-01  1.9868271847537738e-01  1.9864174736291007e-01  1.9859687177538859e-01  1.9854885630162433e-01  1.9849850262084173e-01  1.9844661892472107e-01  1.9839399253646667e-01  1.9834136683334999e-01  1.9828942286026241e-01  1.9823876555806660e-01  1.9818991433668648e-01  1.9814329771416739e-01  1.9809925179480661e-01  1.9805802236818931e-01  1.9801977033077423e-01  1.9798457997578223e-01  1.9795246952126500e-01  1.9792340311113321e-01  1.9789730345605858e-01  1.9787406426018339e-01  1.9785356155842324e-01  1.9783566303202244e-01  1.9782023429026954e-01  1.9780714109952260e-01  1.9779624681390723e-01  1.9778740515494470e-01  1.9778045046125045e-01  1.9777519100368277e-01  1.9777141564204917e-01  1.9776892605918286e-01  1.9776758107653353e-01  2.9877925560959917e-01  2.9877716852257769e-01  1.9776475049557285e-01  1.9776479115439752e-01  1.9776485998117810e-01  1.9776496580007935e-01  1.9776512147432865e-01  1.9776534321117448e-01  1.9776565082926711e-01  1.9776606841289252e-01  1.9776662492207989e-01  1.9776735455921252e-01  1.9776829678506835e-01  1.9776949592039428e-01  1.9777100029908096e-01  1.9777286097332819e-01  1.9777513001725561e-01  1.9777785853272956e-01  1.9778109452351525e-01  1.9778488086064600e-01  1.9778925359973046e-01  1.9779424091605255e-01  1.9779986288609616e-01  1.9780613226297344e-01  1.9781305627529222e-01  1.9782063934038144e-01  1.9782888644646912e-01  1.9783780684796548e-01  1.9784741765214489e-01  1.9785774686478055e-01  1.9786883550693690e-01  1.9788073850647689e-01  1.9789352419227407e-01  1.9790727235919886e-01  1.9792207100619441e-01  1.9793801195773825e-01  1.9795518564957618e-01  1.9797367539500918e-01  1.9799355146016742e-01  1.9801486527906328e-01  1.9803764413917466e-01  1.9806188666431543e-01  1.9808755940494785e-01  1.9811459480564292e-01  1.9814289074619970e-01  1.9817231174421954e-01  1.9820269176783162e-01  1.9823383845076753e-01  1.9826553834737137e-01  1.9829756273524815e-01  1.9832967339022861e-01  1.9836162773845128e-01  1.9839318283869131e-01  1.9842409775582198e-01  1.9845413403362186e-01  1.9848305413966036e-01  1.9851061792506797e-01  1.9853657732208399e-01  1.9856066970354327e-01  1.9858261058655632e-01  1.9860208686576419e-01  1.9861875258336426e-01  1.9863223006265332e-01  1.9864212017531152e-01  1.9864802401105777e-01  1.9864957360983215e-01  1.9864646558771459e-01  1.9863849134498163e-01  1.9862555971037432e-01  1.9860771003696681e-01  1.9858511523336642e-01  1.9855807518587432e-01  1.9852700188733691e-01  1.9849239842498667e-01  1.9845483451951981e-01  1.9841492127253352e-01  1.9837328718821012e-01  1.9833055668199323e-01  1.9828733152785077e-01  1.9824417525374985e-01  1.9820160040883622e-01  1.9816005877455029e-01  1.9811993478168907e-01  1.9808154245795642e-01  1.9804512609089422e-01  1.9801086447336116e-01  1.9797887821085081e-01  1.9794923924140745e-01  1.9792198152225102e-01  1.9789711175879987e-01  1.9787461902542514e-01  1.9785448209966708e-01  1.9783667332075722e-01  1.9782115791558744e-01  1.9780788825750900e-01  1.9779679378645423e-01  1.9778776974663895e-01  1.9778067187975223e-01  1.9777532970790274e-01  1.9777159526259902e-01  1.9776942287021781e-01  2.9878074612697447e-01  2.9877742458413226e-01  1.9776481700453144e-01  1.9776487418424832e-01  1.9776496671062679e-01  1.9776510480720480e-01  1.9776530340395934e-01  1.9776558093687180e-01  1.9776595973032732e-01  1.9776646668156123e-01  1.9776713374741076e-01  1.9776799807890946e-01  1.9776910171503534e-01  1.9777049077017697e-01  1.9777221407896056e-01  1.9777432130781203e-01  1.9777686060696650e-01  1.9777987595557220e-01  1.9778340443660516e-01  1.9778747375277730e-01  1.9779210034059583e-01  1.9779728843749239e-01  1.9780303039321676e-01  1.9780930839090433e-01  1.9781609756702978e-01  1.9782337031772651e-01  1.9783110138695598e-01  1.9783927318468517e-01  1.9784788070782922e-01  1.9785693544880015e-01  1.9786646777543568e-01  1.9787652743661280e-01  1.9788718206657727e-01  1.9789851379540208e-01  1.9791061428080151e-01  1.9792357861898210e-01  1.9793749865222299e-01  1.9795245617968654e-01  1.9796851652544462e-01  1.9798572285502092e-01  1.9800409157757062e-01  1.9802360912711070e-01  1.9804423037219598e-01  1.9806587884318450e-01  1.9808844887608074e-01  1.9811180964555272e-01  1.9813581090049626e-01  1.9816029003659597e-01  1.9818507996313298e-01  1.9821001707315175e-01  1.9823494853534052e-01  1.9825973811515732e-01  1.9828426980984443e-01  1.9830844873422795e-01  1.9833219888954823e-01  1.9835545764647275e-01  1.9837816695132954e-01  1.9840026142510198e-01  1.9842165369124568e-01  1.9844221752089336e-01  1.9846177013616992e-01  1.9848005643236941e-01  1.9849673945397606e-01  1.9851140393511965e-01  1.9852357756888042e-01  1.9853276687041915e-01  1.9853849881043800e-01  1.9854036017213691e-01  1.9853803011913407e-01  1.9853130386552295e-01  1.9852010642765636e-01  1.9850449601942802e-01  1.9848465753637423e-01  1.9846088787896535e-01  1.9843357596925493e-01  1.9840318057492148e-01  1.9837020839696365e-01  1.9833519375197800e-01  1.9829868016538299e-01  1.9826120366740763e-01  1.9822327762049471e-01  1.9818537931338431e-01  1.9814793900955338e-01  1.9811133234609726e-01  1.9807587681173547e-01  1.9804183252205537e-01  1.9800940685135912e-01  1.9797876192339089e-01  1.9795002365547779e-01  1.9792329097719732e-01  1.9789864388980349e-01  1.9787614909539844e-01  1.9785586201087951e-01  1.9783782424484289e-01  1.9782205633909852e-01  1.9780854709495274e-01  1.9779724346475072e-01  1.9778804917161324e-01  1.9778084642670588e-01  1.9777556286120598e-01  1.9777229764301521e-01  2.9878312020155046e-01  2.9877784054177575e-01  1.9776491636063415e-01  1.9776499007588391e-01  1.9776510731514005e-01  1.9776527993433454e-01  1.9776552481931378e-01  1.9776586236381846e-01  1.9776631720063026e-01  1.9776691902607624e-01  1.9776770299803784e-01  1.9776870965035698e-01  1.9776998427467196e-01  1.9777157570438994e-01  1.9777353445497861e-01  1.9777591022992974e-01  1.9777874888639715e-01  1.9778208905998970e-01  1.9778595876140359e-01  1.9779037235846808e-01  1.9779532841909164e-01  1.9780080888440488e-01  1.9780677994800450e-01  1.9781319483740886e-01  1.9781999844428097e-01  1.9782713346689501e-01  1.9783454746376600e-01  1.9784220002057246e-01  1.9785006914229220e-01  1.9785815602296222e-01  1.9786648751590741e-01  1.9787511590424889e-01  1.9788411591954908e-01  1.9789357932016979e-01  1.9790360764366507e-01  1.9791430392181858e-01  1.9792576417102772e-01  1.9793806937653519e-01  1.9795127853824304e-01  1.9796542319643551e-01  1.9798050373964896e-01  1.9799648771651654e-01  1.9801331031070399e-01  1.9803087706777031e-01  1.9804906886326157e-01  1.9806774896089210e-01  1.9808677182961443e-01  1.9810599318306257e-01  1.9812528050036338e-01  1.9814452311984249e-01  1.9816364090648278e-01  1.9818259051377035e-01  1.9820136840298597e-01  1.9822001002530076e-01  1.9823858485378776e-01  1.9825718719058683e-01  1.9827592280218326e-01  1.9829489143953033e-01  1.9831416523027617e-01  1.9833376296710245e-01  1.9835362135053597e-01  1.9837356657657321e-01  1.9839329245016951e-01  1.9841235696162937e-01  1.9843020567471392e-01  1.9844621628336936e-01  1.9845975051507300e-01  1.9847020316100134e-01  1.9847704416846643e-01  1.9847985213896088e-01  1.9847833780838420e-01  1.9847235594597773e-01  1.9846190505034561e-01  1.9844711635984433e-01  1.9842823571723972e-01  1.9840560244362856e-01  1.9837962841397047e-01  1.9835077877560345e-01  1.9831955420122196e-01  1.9828647384694392e-01  1.9825205840771978e-01  1.9821681350326456e-01  1.9818121453505350e-01  1.9814569463073511e-01  1.9811063711459434e-01  1.9807637315049689e-01  1.9804318414468597e-01  1.9801130763501459e-01  1.9798094499866256e-01  1.9795226934050392e-01  1.9792543215224784e-01  1.9790056755675203e-01  1.9787779314346637e-01  1.9785720675259807e-01  1.9783887942346021e-01  1.9782284639425846e-01  1.9780910075269173e-01  1.9779759842917019e-01  1.9778828979326149e-01  1.9778120431254623e-01  1.9777662538325474e-01  2.9878681286799869e-01  2.9877849521170025e-01  1.9776506062006891e-01  1.9776514650130531e-01  1.9776528577984170e-01  1.9776549246377564e-01  1.9776578502721467e-01  1.9776618529701318e-01  1.9776671983459643e-01  1.9776742099291839e-01  1.9776832723837470e-01  1.9776948283969423e-01  1.9777093693224912e-01  1.9777274189043278e-01  1.9777495094357428e-01  1.9777761503502889e-01  1.9778077903255215e-01  1.9778447753688208e-01  1.9778873068786071e-01  1.9779354050655851e-01  1.9779888839971546e-01  1.9780473444528582e-01  1.97811018947