<?xml version="1.0"?>
<VTKFile type="UnstructuredGrid"  version="0.1"  >
<UnstructuredGrid>
<Piece  NumberOfPoints="5151" NumberOfCells="10000">
<Points>
<DataArray  type="Float64"  NumberOfComponents="3"  format="ascii">0 0 0  0.02 0 0  0.04 0 0  0.06 0 0  0.08 0 0  0.1 0 0  0.12 0 0  0.14 0 0  0.16 0 0  0.18 0 0  0.2 0 0  0.22 0 0  0.24 0 0  0.26 0 0  0.28 0 0  0.3 0 0  0.32 0 0  0.34 0 0  0.36 0 0  0.38 0 0  0.4 0 0  0.42 0 0  0.44 0 0  0.46 0 0  0.48 0 0  0.5 0 0  0.52 0 0  0.54 0 0  0.5600000000000001 0 0  0.58 0 0  0.6 0 0  0.62 0 0  0.64 0 0  0.66 0 0  0.68 0 0  0.7 0 0  0.72 0 0  0.74 0 0  0.76 0 0  0.78 0 0  0.8 0 0  0.82 0 0  0.84 0 0  0.86 0 0  0.88 0 0  0.9 0 0  0.92 0 0  0.9399999999999999 0 0  0.96 0 0  0.98 0 0  1 0 0  1.02 0 0  1.04 0 0  1.06 0 0  1.08 0 0  1.1 0 0  1.12 0 0  1.14 0 0  1.16 0 0  1.18 0 0  1.2 0 0  1.22 0 0  1.24 0 0  1.26 0 0  1.28 0 0  1.3 0 0  1.32 0 0  1.34 0 0  1.36 0 0  1.38 0 0  1.4 0 0  1.42 0 0  1.44 0 0  1.46 0 0  1.48 0 0  1.5 0 0  1.52 0 0  1.54 0 0  1.56 0 0  1.58 0 0  1.6 0 0  1.62 0 0  1.64 0 0  1.66 0 0  1.68 0 0  1.7 0 0  1.72 0 0  1.74 0 0  1.76 0 0  1.78 0 0  1.8 0 0  1.82 0 0  1.84 0 0  1.86 0 0  1.88 0 0  1.9 0 0  1.92 0 0  1.94 0 0  1.96 0 0  1.98 0 0  2 0 0  0 0.02 0  0.02 0.02 0  0.04 0.02 0  0.06 0.02 0  0.08 0.02 0  0.1 0.02 0  0.12 0.02 0  0.14 0.02 0  0.16 0.02 0  0.18 0.02 0  0.2 0.02 0  0.22 0.02 0  0.24 0.02 0  0.26 0.02 0  0.28 0.02 0  0.3 0.02 0  0.32 0.02 0  0.34 0.02 0  0.36 0.02 0  0.38 0.02 0  0.4 0.02 0  0.42 0.02 0  0.44 0.02 0  0.46 0.02 0  0.48 0.02 0  0.5 0.02 0  0.52 0.02 0  0.54 0.02 0  0.5600000000000001 0.02 0  0.58 0.02 0  0.6 0.02 0  0.62 0.02 0  0.64 0.02 0  0.66 0.02 0  0.68 0.02 0  0.7 0.02 0  0.72 0.02 0  0.74 0.02 0  0.76 0.02 0  0.78 0.02 0  0.8 0.02 0  0.82 0.02 0  0.84 0.02 0  0.86 0.02 0  0.88 0.02 0  0.9 0.02 0  0.92 0.02 0  0.9399999999999999 0.02 0  0.96 0.02 0  0.98 0.02 0  1 0.02 0  1.02 0.02 0  1.04 0.02 0  1.06 0.02 0  1.08 0.02 0  1.1 0.02 0  1.12 0.02 0  1.14 0.02 0  1.16 0.02 0  1.18 0.02 0  1.2 0.02 0  1.22 0.02 0  1.24 0.02 0  1.26 0.02 0  1.28 0.02 0  1.3 0.02 0  1.32 0.02 0  1.34 0.02 0  1.36 0.02 0  1.38 0.02 0  1.4 0.02 0  1.42 0.02 0  1.44 0.02 0  1.46 0.02 0  1.48 0.02 0  1.5 0.02 0  1.52 0.02 0  1.54 0.02 0  1.56 0.02 0  1.58 0.02 0  1.6 0.02 0  1.62 0.02 0  1.64 0.02 0  1.66 0.02 0  1.68 0.02 0  1.7 0.02 0  1.72 0.02 0  1.74 0.02 0  1.76 0.02 0  1.78 0.02 0  1.8 0.02 0  1.82 0.02 0  1.84 0.02 0  1.86 0.02 0  1.88 0.02 0  1.9 0.02 0  1.92 0.02 0  1.94 0.02 0  1.96 0.02 0  1.98 0.02 0  2 0.02 0  0 0.04 0  0.02 0.04 0  0.04 0.04 0  0.06 0.04 0  0.08 0.04 0  0.1 0.04 0  0.12 0.04 0  0.14 0.04 0  0.16 0.04 0  0.18 0.04 0  0.2 0.04 0  0.22 0.04 0  0.24 0.04 0  0.26 0.04 0  0.28 0.04 0  0.3 0.04 0  0.32 0.04 0  0.34 0.04 0  0.36 0.04 0  0.38 0.04 0  0.4 0.04 0  0.42 0.04 0  0.44 0.04 0  0.46 0.04 0  0.48 0.04 0  0.5 0.04 0  0.52 0.04 0  0.54 0.04 0  0.5600000000000001 0.04 0  0.58 0.04 0  0.6 0.04 0  0.62 0.04 0  0.64 0.04 0  0.66 0.04 0  0.68 0.04 0  0.7 0.04 0  0.72 0.04 0  0.74 0.04 0  0.76 0.04 0  0.78 0.04 0  0.8 0.04 0  0.82 0.04 0  0.84 0.04 0  0.86 0.04 0  0.88 0.04 0  0.9 0.04 0  0.92 0.04 0  0.9399999999999999 0.04 0  0.96 0.04 0  0.98 0.04 0  1 0.04 0  1.02 0.04 0  1.04 0.04 0  1.06 0.04 0  1.08 0.04 0  1.1 0.04 0  1.12 0.04 0  1.14 0.04 0  1.16 0.04 0  1.18 0.04 0  1.2 0.04 0  1.22 0.04 0  1.24 0.04 0  1.26 0.04 0  1.28 0.04 0  1.3 0.04 0  1.32 0.04 0  1.34 0.04 0  1.36 0.04 0  1.38 0.04 0  1.4 0.04 0  1.42 0.04 0  1.44 0.04 0  1.46 0.04 0  1.48 0.04 0  1.5 0.04 0  1.52 0.04 0  1.54 0.04 0  1.56 0.04 0  1.58 0.04 0  1.6 0.04 0  1.62 0.04 0  1.64 0.04 0  1.66 0.04 0  1.68 0.04 0  1.7 0.04 0  1.72 0.04 0  1.74 0.04 0  1.76 0.04 0  1.78 0.04 0  1.8 0.04 0  1.82 0.04 0  1.84 0.04 0  1.86 0.04 0  1.88 0.04 0  1.9 0.04 0  1.92 0.04 0  1.94 0.04 0  1.96 0.04 0  1.98 0.04 0  2 0.04 0  0 0.06 0  0.02 0.06 0  0.04 0.06 0  0.06 0.06 0  0.08 0.06 0  0.1 0.06 0  0.12 0.06 0  0.14 0.06 0  0.16 0.06 0  0.18 0.06 0  0.2 0.06 0  0.22 0.06 0  0.24 0.06 0  0.26 0.06 0  0.28 0.06 0  0.3 0.06 0  0.32 0.06 0  0.34 0.06 0  0.36 0.06 0  0.38 0.06 0  0.4 0.06 0  0.42 0.06 0  0.44 0.06 0  0.46 0.06 0  0.48 0.06 0  0.5 0.06 0  0.52 0.06 0  0.54 0.06 0  0.5600000000000001 0.06 0  0.58 0.06 0  0.6 0.06 0  0.62 0.06 0  0.64 0.06 0  0.66 0.06 0  0.68 0.06 0  0.7 0.06 0  0.72 0.06 0  0.74 0.06 0  0.76 0.06 0  0.78 0.06 0  0.8 0.06 0  0.82 0.06 0  0.84 0.06 0  0.86 0.06 0  0.88 0.06 0  0.9 0.06 0  0.92 0.06 0  0.9399999999999999 0.06 0  0.96 0.06 0  0.98 0.06 0  1 0.06 0  1.02 0.06 0  1.04 0.06 0  1.06 0.06 0  1.08 0.06 0  1.1 0.06 0  1.12 0.06 0  1.14 0.06 0  1.16 0.06 0  1.18 0.06 0  1.2 0.06 0  1.22 0.06 0  1.24 0.06 0  1.26 0.06 0  1.28 0.06 0  1.3 0.06 0  1.32 0.06 0  1.34 0.06 0  1.36 0.06 0  1.38 0.06 0  1.4 0.06 0  1.42 0.06 0  1.44 0.06 0  1.46 0.06 0  1.48 0.06 0  1.5 0.06 0  1.52 0.06 0  1.54 0.06 0  1.56 0.06 0  1.58 0.06 0  1.6 0.06 0  1.62 0.06 0  1.64 0.06 0  1.66 0.06 0  1.68 0.06 0  1.7 0.06 0  1.72 0.06 0  1.74 0.06 0  1.76 0.06 0  1.78 0.06 0  1.8 0.06 0  1.82 0.06 0  1.84 0.06 0  1.86 0.06 0  1.88 0.06 0  1.9 0.06 0  1.92 0.06 0  1.94 0.06 0  1.96 0.06 0  1.98 0.06 0  2 0.06 0  0 0.08 0  0.02 0.08 0  0.04 0.08 0  0.06 0.08 0  0.08 0.08 0  0.1 0.08 0  0.12 0.08 0  0.14 0.08 0  0.16 0.08 0  0.18 0.08 0  0.2 0.08 0  0.22 0.08 0  0.24 0.08 0  0.26 0.08 0  0.28 0.08 0  0.3 0.08 0  0.32 0.08 0  0.34 0.08 0  0.36 0.08 0  0.38 0.08 0  0.4 0.08 0  0.42 0.08 0  0.44 0.08 0  0.46 0.08 0  0.48 0.08 0  0.5 0.08 0  0.52 0.08 0  0.54 0.08 0  0.5600000000000001 0.08 0  0.58 0.08 0  0.6 0.08 0  0.62 0.08 0  0.64 0.08 0  0.66 0.08 0  0.68 0.08 0  0.7 0.08 0  0.72 0.08 0  0.74 0.08 0  0.76 0.08 0  0.78 0.08 0  0.8 0.08 0  0.82 0.08 0  0.84 0.08 0  0.86 0.08 0  0.88 0.08 0  0.9 0.08 0  0.92 0.08 0  0.9399999999999999 0.08 0  0.96 0.08 0  0.98 0.08 0  1 0.08 0  1.02 0.08 0  1.04 0.08 0  1.06 0.08 0  1.08 0.08 0  1.1 0.08 0  1.12 0.08 0  1.14 0.08 0  1.16 0.08 0  1.18 0.08 0  1.2 0.08 0  1.22 0.08 0  1.24 0.08 0  1.26 0.08 0  1.28 0.08 0  1.3 0.08 0  1.32 0.08 0  1.34 0.08 0  1.36 0.08 0  1.38 0.08 0  1.4 0.08 0  1.42 0.08 0  1.44 0.08 0  1.46 0.08 0  1.48 0.08 0  1.5 0.08 0  1.52 0.08 0  1.54 0.08 0  1.56 0.08 0  1.58 0.08 0  1.6 0.08 0  1.62 0.08 0  1.64 0.08 0  1.66 0.08 0  1.68 0.08 0  1.7 0.08 0  1.72 0.08 0  1.74 0.08 0  1.76 0.08 0  1.78 0.08 0  1.8 0.08 0  1.82 0.08 0  1.84 0.08 0  1.86 0.08 0  1.88 0.08 0  1.9 0.08 0  1.92 0.08 0  1.94 0.08 0  1.96 0.08 0  1.98 0.08 0  2 0.08 0  0 0.1 0  0.02 0.1 0  0.04 0.1 0  0.06 0.1 0  0.08 0.1 0  0.1 0.1 0  0.12 0.1 0  0.14 0.1 0  0.16 0.1 0  0.18 0.1 0  0.2 0.1 0  0.22 0.1 0  0.24 0.1 0  0.26 0.1 0  0.28 0.1 0  0.3 0.1 0  0.32 0.1 0  0.34 0.1 0  0.36 0.1 0  0.38 0.1 0  0.4 0.1 0  0.42 0.1 0  0.44 0.1 0  0.46 0.1 0  0.48 0.1 0  0.5 0.1 0  0.52 0.1 0  0.54 0.1 0  0.5600000000000001 0.1 0  0.58 0.1 0  0.6 0.1 0  0.62 0.1 0  0.64 0.1 0  0.66 0.1 0  0.68 0.1 0  0.7 0.1 0  0.72 0.1 0  0.74 0.1 0  0.76 0.1 0  0.78 0.1 0  0.8 0.1 0  0.82 0.1 0  0.84 0.1 0  0.86 0.1 0  0.88 0.1 0  0.9 0.1 0  0.92 0.1 0  0.9399999999999999 0.1 0  0.96 0.1 0  0.98 0.1 0  1 0.1 0  1.02 0.1 0  1.04 0.1 0  1.06 0.1 0  1.08 0.1 0  1.1 0.1 0  1.12 0.1 0  1.14 0.1 0  1.16 0.1 0  1.18 0.1 0  1.2 0.1 0  1.22 0.1 0  1.24 0.1 0  1.26 0.1 0  1.28 0.1 0  1.3 0.1 0  1.32 0.1 0  1.34 0.1 0  1.36 0.1 0  1.38 0.1 0  1.4 0.1 0  1.42 0.1 0  1.44 0.1 0  1.46 0.1 0  1.48 0.1 0  1.5 0.1 0  1.52 0.1 0  1.54 0.1 0  1.56 0.1 0  1.58 0.1 0  1.6 0.1 0  1.62 0.1 0  1.64 0.1 0  1.66 0.1 0  1.68 0.1 0  1.7 0.1 0  1.72 0.1 0  1.74 0.1 0  1.76 0.1 0  1.78 0.1 0  1.8 0.1 0  1.82 0.1 0  1.84 0.1 0  1.86 0.1 0  1.88 0.1 0  1.9 0.1 0  1.92 0.1 0  1.94 0.1 0  1.96 0.1 0  1.98 0.1 0  2 0.1 0  0 0.12 0  0.02 0.12 0  0.04 0.12 0  0.06 0.12 0  0.08 0.12 0  0.1 0.12 0  0.12 0.12 0  0.14 0.12 0  0.16 0.12 0  0.18 0.12 0  0.2 0.12 0  0.22 0.12 0  0.24 0.12 0  0.26 0.12 0  0.28 0.12 0  0.3 0.12 0  0.32 0.12 0  0.34 0.12 0  0.36 0.12 0  0.38 0.12 0  0.4 0.12 0  0.42 0.12 0  0.44 0.12 0  0.46 0.12 0  0.48 0.12 0  0.5 0.12 0  0.52 0.12 0  0.54 0.12 0  0.5600000000000001 0.12 0  0.58 0.12 0  0.6 0.12 0  0.62 0.12 0  0.64 0.12 0  0.66 0.12 0  0.68 0.12 0  0.7 0.12 0  0.72 0.12 0  0.74 0.12 0  0.76 0.12 0  0.78 0.12 0  0.8 0.12 0  0.82 0.12 0  0.84 0.12 0  0.86 0.12 0  0.88 0.12 0  0.9 0.12 0  0.92 0.12 0  0.9399999999999999 0.12 0  0.96 0.12 0  0.98 0.12 0  1 0.12 0  1.02 0.12 0  1.04 0.12 0  1.06 0.12 0  1.08 0.12 0  1.1 0.12 0  1.12 0.12 0  1.14 0.12 0  1.16 0.12 0  1.18 0.12 0  1.2 0.12 0  1.22 0.12 0  1.24 0.12 0  1.26 0.12 0  1.28 0.12 0  1.3 0.12 0  1.32 0.12 0  1.34 0.12 0  1.36 0.12 0  1.38 0.12 0  1.4 0.12 0  1.42 0.12 0  1.44 0.12 0  1.46 0.12 0  1.48 0.12 0  1.5 0.12 0  1.52 0.12 0  1.54 0.12 0  1.56 0.12 0  1.58 0.12 0  1.6 0.12 0  1.62 0.12 0  1.64 0.12 0  1.66 0.12 0  1.68 0.12 0  1.7 0.12 0  1.72 0.12 0  1.74 0.12 0  1.76 0.12 0  1.78 0.12 0  1.8 0.12 0  1.82 0.12 0  1.84 0.12 0  1.86 0.12 0  1.88 0.12 0  1.9 0.12 0  1.92 0.12 0  1.94 0.12 0  1.96 0.12 0  1.98 0.12 0  2 0.12 0  0 0.14 0  0.02 0.14 0  0.04 0.14 0  0.06 0.14 0  0.08 0.14 0  0.1 0.14 0  0.12 0.14 0  0.14 0.14 0  0.16 0.14 0  0.18 0.14 0  0.2 0.14 0  0.22 0.14 0  0.24 0.14 0  0.26 0.14 0  0.28 0.14 0  0.3 0.14 0  0.32 0.14 0  0.34 0.14 0  0.36 0.14 0  0.38 0.14 0  0.4 0.14 0  0.42 0.14 0  0.44 0.14 0  0.46 0.14 0  0.48 0.14 0  0.5 0.14 0  0.52 0.14 0  0.54 0.14 0  0.5600000000000001 0.14 0  0.58 0.14 0  0.6 0.14 0  0.62 0.14 0  0.64 0.14 0  0.66 0.14 0  0.68 0.14 0  0.7 0.14 0  0.72 0.14 0  0.74 0.14 0  0.76 0.14 0  0.78 0.14 0  0.8 0.14 0  0.82 0.14 0  0.84 0.14 0  0.86 0.14 0  0.88 0.14 0  0.9 0.14 0  0.92 0.14 0  0.9399999999999999 0.14 0  0.96 0.14 0  0.98 0.14 0  1 0.14 0  1.02 0.14 0  1.04 0.14 0  1.06 0.14 0  1.08 0.14 0  1.1 0.14 0  1.12 0.14 0  1.14 0.14 0  1.16 0.14 0  1.18 0.14 0  1.2 0.14 0  1.22 0.14 0  1.24 0.14 0  1.26 0.14 0  1.28 0.14 0  1.3 0.14 0  1.32 0.14 0  1.34 0.14 0  1.36 0.14 0  1.38 0.14 0  1.4 0.14 0  1.42 0.14 0  1.44 0.14 0  1.46 0.14 0  1.48 0.14 0  1
[...]
<PointData  Scalars="sols[i]"> 
<DataArray  type="Float64"  Name="sols[i]"  format="ascii">2.9856700029696331e-01  2.6779714998745036e-01  2.6778341190943233e-01  2.6776165135618396e-01  2.6772044053357485e-01  2.6764640528574718e-01  2.6750834305230953e-01  2.6731595932876034e-01  2.6698559833266206e-01  2.6648451209253654e-01  2.6572496602538609e-01  2.6478319377006670e-01  2.6328489756013723e-01  2.6157298470179574e-01  2.5977112643815392e-01  2.5719683487605838e-01  2.5472033157796953e-01  2.5121303795210820e-01  2.4943970164718277e-01  2.4815909296190988e-01  2.4564224375616026e-01  2.4517017516031001e-01  2.4486834705327987e-01  2.4449502027334913e-01  2.4455908795152734e-01  2.4476885773918217e-01  2.4518044360206603e-01  2.4616543455155479e-01  2.4629172953197817e-01  2.4708494228722974e-01  2.4772902365022689e-01  2.4807595454494413e-01  2.4746935177501045e-01  2.4729294807171370e-01  2.4695418906656080e-01  2.4650231755988217e-01  2.4594388532402794e-01  2.4563763251417703e-01  2.4500083503783568e-01  2.4462715140259150e-01  2.4440863653946607e-01  2.4426356364522805e-01  2.4418313991391252e-01  2.4418123862217037e-01  2.4421969181788164e-01  2.4431646345679967e-01  2.4446906239596333e-01  2.4457029880412848e-01  2.4455404790409091e-01  2.4479648584508909e-01  2.4518250352581167e-01  2.4551445134370123e-01  2.4586067446064158e-01  2.4563155941909870e-01  2.4684739844036657e-01  2.4704301257508407e-01  2.4757292080048110e-01  2.4821070615093960e-01  2.4893574018639994e-01  2.4978996683695748e-01  2.5059407716680038e-01  2.5144888139837135e-01  2.5214393784983358e-01  2.5348803955630000e-01  2.5418892204285215e-01  2.5547738456954483e-01  2.5657189707575034e-01  2.5766313297835713e-01  2.5828947632950522e-01  2.5937433823971257e-01  2.5994572355992906e-01  2.6095447165751950e-01  2.6172525895503895e-01  2.6237679278591169e-01  2.6276879024950384e-01  2.6328892007510080e-01  2.6371247675370368e-01  2.6413639610177325e-01  2.6447586826645281e-01  2.6473003340396045e-01  2.6501913416798040e-01  2.6523679290674373e-01  2.6547812385202180e-01  2.6572408268938491e-01  2.6595057745109757e-01  2.6621384438416346e-01  2.6643117570984726e-01  2.6665883219944353e-01  2.6685373991788719e-01  2.6705120120754910e-01  2.6722513049640756e-01  2.6737647856523489e-01  2.6750161242968556e-01  2.6760007898505983e-01  2.6767333092670992e-01  2.6772572142874446e-01  2.6776009841765724e-01  2.6778120113981024e-01  2.6779341492386366e-01  2.6779920417302938e-01  4.1617116424449846e-01  2.6779909342635039e-01  3.0521410329227816e-01  3.0521497397613140e-01  3.0521576424700525e-01  3.0521833240830593e-01  3.0522238324408635e-01  3.0522898791440367e-01  3.0524236306914682e-01  3.0526293783077740e-01  3.0529925037107652e-01  3.0535651641567202e-01  3.0543625510540184e-01  3.0558296238391042e-01  3.0575787442862862e-01  3.0602286571321530e-01  3.0635953690592377e-01  3.0687137443796869e-01  3.0729205653189529e-01  3.0810127607333265e-01  3.0889999359102777e-01  3.0982003053685936e-01  3.1084677087151347e-01  3.1193904695079561e-01  3.1285008587194890e-01  3.1369594732285844e-01  3.1476073366226953e-01  3.1530024403736945e-01  3.1620995759765352e-01  3.1614485632288036e-01  3.1655446371662760e-01  3.1644334748321817e-01  3.1593717771846647e-01  3.1586135469213822e-01  3.1590646382620896e-01  3.1533574030125772e-01  3.1485582325494349e-01  3.1401176592411773e-01  3.1319856783654926e-01  3.1254095468976528e-01  3.1192083188978448e-01  3.1149005782483130e-01  3.1107760167060566e-01  3.1063417005170618e-01  3.1031756570155739e-01  3.1019545777005442e-01  3.0998053732478165e-01  3.0967342568126360e-01  3.0968799606343783e-01  3.0947406095324548e-01  3.0938567232730207e-01  3.0923010933912237e-01  3.0918262552153969e-01  3.0893490740269597e-01  3.0891955104766039e-01  3.0871911638546357e-01  3.0857316358572823e-01  3.0816885635218921e-01  3.0814187781716412e-01  3.0793645906539535e-01  3.0768005779742758e-01  3.0753848419508523e-01  3.0744478727252594e-01  3.0724675578587091e-01  3.0709248468195055e-01  3.0687765610548340e-01  3.0672260794571904e-01  3.0656121716628038e-01  3.0643284239578816e-01  3.0628144582175720e-01  3.0617962333681603e-01  3.0606295498137209e-01  3.0592217739570376e-01  3.0585796739598198e-01  3.0577682368618808e-01  3.0570613931522872e-01  3.0566124968593411e-01  3.0562215638012763e-01  3.0557165878067094e-01  3.0553581551627784e-01  3.0551451044971734e-01  3.0548566664569471e-01  3.0546277637444780e-01  3.0543770517159896e-01  3.0541670440647717e-01  3.0539240184376332e-01  3.0536996574290909e-01  3.0534782320177478e-01  3.0532755995234445e-01  3.0530786195675919e-01  3.0528974500390327e-01  3.0527289860143331e-01  3.0525839521209680e-01  3.0524666651318000e-01  3.0523691343717774e-01  3.0522929125613213e-01  3.0522379798862309e-01  3.0521993277178389e-01  3.0521740383876056e-01  3.0521587272565143e-01  3.0521507517101371e-01  2.6779892523408438e-01  2.6779191801735058e-01  3.0521455242842815e-01  3.0521466161386074e-01  3.0521581962452371e-01  3.0521666569094968e-01  3.0521862705011316e-01  3.0522371415910726e-01  3.0523343341347170e-01  3.0524985224353701e-01  3.0527685187293380e-01  3.0531659725755700e-01  3.0538375688651548e-01  3.0548162762399206e-01  3.0560059869273459e-01  3.0580250143083482e-01  3.0604719967723787e-01  3.0630498831193070e-01  3.0673140575069202e-01  3.0724717393407064e-01  3.0785284164753385e-01  3.0848491346953105e-01  3.0918901856581288e-01  3.0968690859605275e-01  3.1048278062058265e-01  3.1063802574080951e-01  3.1116532908795752e-01  3.1193558873823651e-01  3.1254857118369844e-01  3.1275301887330065e-01  3.1265963763601468e-01  3.1252601695112425e-01  3.1247393638961973e-01  3.1218228567667577e-01  3.1215423923395413e-01  3.1139621741171086e-01  3.1095259741604797e-01  3.1049003767378991e-01  3.0999447184412349e-01  3.0952609128265995e-01  3.0917100025587857e-01  3.0882521115528466e-01  3.0856217005831466e-01  3.0838979562236329e-01  3.0814726213080779e-01  3.0798665558517974e-01  3.0789279604579539e-01  3.0780455939089030e-01  3.0795006708927058e-01  3.0767658375171236e-01  3.0764060393498677e-01  3.0765286924305046e-01  3.0762752917231889e-01  3.0738235527228924e-01  3.0728837461361908e-01  3.0734162595392012e-01  3.0726178375095942e-01  3.0710544350745828e-01  3.0708766035206142e-01  3.0693608790320537e-01  3.0687791372546375e-01  3.0671416182559574e-01  3.0666554613216829e-01  3.0658774170963204e-01  3.0639618281696229e-01  3.0635363866217546e-01  3.0623620120833622e-01  3.0613319639710679e-01  3.0603400452008034e-01  3.0595105790953459e-01  3.0583444774698693e-01  3.0577772384505514e-01  3.0570089764445441e-01  3.0565093324963494e-01  3.0560277619150183e-01  3.0556332051286045e-01  3.0552474470602248e-01  3.0549304701006941e-01  3.0546730549463069e-01  3.0544686747002919e-01  3.0542593343223473e-01  3.0541235188919269e-01  3.0538743960911841e-01  3.0536949010866810e-01  3.0535405909651392e-01  3.0533822364194424e-01  3.0532314995925292e-01  3.0530887416684871e-01  3.0529594263010634e-01  3.0528298799727555e-01  3.0527062183712650e-01  3.0525968333634718e-01  3.0524986261684028e-01  3.0524137723853784e-01  3.0523452495012177e-01  3.0522863925754401e-01  3.0522413180508201e-01  3.0522084317582449e-01  3.0521849757111325e-01  3.0521694204836930e-01  3.0521604665904334e-01  2.6779161809664848e-01  2.6777616608321175e-01  3.0521528110278556e-01  3.0521401876313647e-01  3.0521430126917809e-01  3.0521321477952318e-01  3.0521399479615385e-01  3.0521608962008318e-01  3.0522169219424189e-01  3.0523396430690547e-01  3.0525756293065692e-01  3.0528612339580891e-01  3.0533919967926992e-01  3.0542415559881081e-01  3.0555595124526996e-01  3.0570399717003049e-01  3.0585887658679956e-01  3.0607972671280581e-01  3.0637609052349107e-01  3.0661875528681204e-01  3.0706069820905157e-01  3.0747009061184261e-01  3.0777879632281513e-01  3.0808041646166423e-01  3.0874771496907172e-01  3.0876333884853047e-01  3.0892483154109057e-01  3.0921955967053227e-01  3.0929613277134266e-01  3.0936031695287641e-01  3.0940706556102548e-01  3.0914904588306880e-01  3.0917761621413609e-01  3.0910519060758362e-01  3.0891026818579043e-01  3.0863560694671888e-01  3.0824047414760813e-01  3.0791935827825639e-01  3.0758352711372428e-01  3.0736077853383187e-01  3.0709214653235417e-01  3.0692979946308846e-01  3.0678747116347438e-01  3.0669559208393793e-01  3.0660861823170049e-01  3.0657931693049473e-01  3.0647672113113417e-01  3.0645798974567012e-01  3.0645345813770636e-01  3.0648704989293285e-01  3.0652161954227125e-01  3.0649628595995104e-01  3.0647908548873665e-01  3.0646620028251376e-01  3.0646947103876865e-01  3.0642548018885651e-01  3.0638789270076483e-01  3.0630169536764879e-01  3.0638332643325228e-01  3.0624398456830793e-01  3.0620015933229100e-01  3.0611585688892795e-01  3.0608380468119839e-01  3.0598797906093589e-01  3.0595106005299616e-01  3.0589626941357895e-01  3.0587789896510481e-01  3.0578233990246118e-01  3.0573971747033590e-01  3.0567373066354014e-01  3.0563121399445053e-01  3.0557623197657602e-01  3.0556206629153287e-01  3.0551305034166376e-01  3.0547745345840094e-01  3.0544389138177974e-01  3.0542546979741170e-01  3.0540484485092190e-01  3.0538505709544722e-01  3.0537145942039257e-01  3.0535768406963076e-01  3.0534684028945708e-01  3.0533298780759716e-01  3.0532048148691943e-01  3.0531075796886165e-01  3.0530094637181049e-01  3.0529023667177096e-01  3.0528154264224228e-01  3.0527280409011542e-01  3.0526498352636966e-01  3.0525703255505748e-01  3.0524985094165108e-01  3.0524326875506108e-01  3.0523775380881268e-01  3.0523258288394894e-01  3.0522833265684401e-01  3.0522487058015602e-01  3.0522212277993654e-01  3.0522020477137823e-01  3.0521888178534390e-01  3.0521794570408972e-01  2.6777610719769357e-01  2.6775326247985176e-01  3.0521530038605371e-01  3.0521445033349631e-01  3.0521194977437399e-01  3.0520972859623724e-01  3.0520813860864504e-01  3.0520913799823052e-01  3.0521212258943003e-01  3.0522276335376836e-01  3.0524420541141473e-01  3.0526817180575272e-01  3.0531731816507268e-01  3.0537857934444057e-01  3.0554069447434845e-01  3.0567343461248858e-01  3.0582239888569152e-01  3.0598340268625457e-01  3.0627650947637347e-01  3.0654910143392933e-01  3.0682673073417327e-01  3.0692196188252818e-01  3.0720804653230221e-01  3.0742293472246995e-01  3.0759000940317793e-01  3.0759834482029480e-01  3.0753018130026510e-01  3.0745404429388934e-01  3.0740731821875894e-01  3.0735060307429168e-01  3.0730476842210513e-01  3.0728287540813887e-01  3.0734462923978995e-01  3.0725831337865400e-01  3.0708435493151731e-01  3.0695722483823884e-01  3.0676230605953370e-01  3.0652409010949394e-01  3.0630713861729125e-01  3.0610526206277811e-01  3.0597473700605782e-01  3.0588896552706468e-01  3.0583229184744015e-01  3.0581730062502949e-01  3.0580190848136385e-01  3.0581787914396003e-01  3.0581489510239768e-01  3.0581753310188020e-01  3.0590012623380869e-01  3.0588444881355659e-01  3.0588824612965893e-01  3.0594867021471023e-01  3.0594412905460083e-01  3.0592589945173299e-01  3.0595177698952852e-01  3.0594726710265424e-01  3.0592105937098246e-01  3.0590283059044610e-01  3.0585795311386998e-01  3.0585820622837928e-01  3.0585590727110007e-01  3.0582963945256847e-01  3.0576598638289909e-01  3.0574561191276467e-01  3.0570270808301320e-01  3.0567274114059223e-01  3.0564447568713388e-01  3.0560922140801161e-01  3.0557518050428878e-01  3.0555246183588075e-01  3.0551390810393003e-01  3.0549560654956615e-01  3.0546322119725117e-01  3.0543371818313192e-01  3.0541571976959575e-01  3.0539276759300887e-01  3.0537071357543311e-01  3.0535862630979610e-01  3.0534554817417148e-01  3.0533468801814040e-01  3.0532462667225685e-01  3.0531278603991235e-01  3.0530457985782222e-01  3.0529563435855833e-01  3.0528858742606124e-01  3.0528157556262064e-01  3.0527444189456321e-01  3.0526814735086572e-01  3.0526235925419315e-01  3.0525604816682905e-01  3.0525089824885671e-01  3.0524578820073317e-01  3.0524112826838773e-01  3.0523650911650557e-01  3.0523266564450313e-01  3.0522928418006245e-01  3.0522635951447624e-01  3.0522423376492064e-01  3.0522289282861098e-01  3.0522203176881030e-01  3.0522129153126265e-01  2.6774816733521561e-01  2.6772216829961187e-01  3.0521506055067910e-01  3.0521322926013889e-01  3.0520927511312246e-01  3.0520558874964882e-01  3.0520283064432280e-01  3.0520135029761947e-01  3.0520319965277809e-01  3.0521389459775145e-01  3.0523143606571168e-01  3.0526177082073980e-01  3.0532028427235713e-01  3.0538830358148816e-01  3.0554660506245368e-01  3.0569305528275087e-01  3.0584798160306581e-01  3.0600282850748556e-01  3.0628105658820587e-01  3.0651455830660956e-01  3.0679673233321775e-01  3.0696657575959441e-01  3.0712402574317316e-01  3.0716213528978364e-01  3.0712791142957807e-01  3.0702424958476915e-01  3.0690714011660802e-01  3.0671077192951424e-01  3.0638242681251487e-01  3.0628359814086770e-01  3.0621535823649593e-01  3.0623558739564383e-01  3.0623782468102290e-01  3.0623506299092251e-01  3.0617684577439125e-01  3.0604520805170493e-01  3.0586678051708921e-01  3.0569619524265246e-01  3.0554341244179112e-01  3.0543880095607878e-01  3.0538034867609182e-01  3.0535626978699537e-01  3.0537095078832244e-01  3.0541350478432699e-01  3.0544700623806237e-01  3.0549236510092798e-01  3.0553890289418334e-01  3.0559645345393405e-01  3.0563976752767114e-01  3.0564588800670350e-01  3.0568226106261182e-01  3.0570448544063228e-01  3.0571211456276204e-01  3.0573260624777315e-01  3.0574699661566895e-01  3.0576187346323885e-01  3.0573381494824053e-01  3.0571676854288371e-01  3.0570758564026401e-01  3.0568856268628636e-01  3.0568110442679347e-01  3.0566995610503411e-01  3.0564321239213310e-01  3.0561973836451811e-01  3.0561761293334538e-01  3.0559896321582630e-01  3.0557175789789881e-01  3.0554538383024532e-01  3.0552740482340046e-01  3.0550185845587696e-01  3.0547146807816622e-01  3.0545216069319392e-01  3.0543160862069918e-01  3.0540490987486058e-01  3.0538540781089174e-01  3.0536782608399649e-01  3.0535191381824711e-01  3.0534025259857844e-01  3.0532780332682991e-01  3.0532041617733774e-01  3.0531050996563702e-01  3.0530087725848781e-01  3.0529375307088003e-01  3.0528756471942659e-01  3.0528049807053975e-01  3.0527599516237697e-01  3.0526973093174836e-01  3.0526452569705215e-01  3.0526004367007442e-01  3.0525483637622758e-01  3.0525018470776139e-01  3.0524597784087176e-01  3.0524168883698405e-01  3.0523792206010819e-01  3.0523449851230339e-01  3.0523140006004101e-01  3.0522910612773158e-01  3.0522754106582745e-01  3.0522675616526707e-01  3.0522674180503773e-01  3.0522667510412677e-01  2.6770003195831671e-01  2.6769340231803823e-01  3.0521759077030503e-01  3.0521197002745643e-01  3.0520719808752855e-01  3.0520204547003199e-01  3.0519764321939752e-01  3.0519705222541244e-01  3.0519970637797272e-01  3.0521323758618801e-01  3.0523046514955721e-01  3.0526737784045882e-01  3.0531572368987270e-01  3.0540333058452673e-01  3.0553797123373150e-01  3.0573900790007447e-01  3.0591041600925006e-01  3.0611027515891359e-01  3.0637514556394330e-01  3.0673178849549304e-01  3.0691647421656804e-01  3.0712600489957054e-01  3.0721723885195473e-01  3.0725635499729304e-01  3.0717955616766313e-01  3.0695023574349184e-01  3.0655636727107310e-01  3.0617108520779573e-01  3.0574994401492311e-01  3.0548458533555883e-01  3.0535687347757406e-01  3.0539372101836326e-01  3.0547214383273369e-01  3.0556525424172559e-01  3.0555972249833613e-01  3.0545546272707941e-01  3.0529916595587364e-01  3.0518800706197791e-01  3.0508914182497499e-01  3.0505385108431976e-01  3.0506841771937504e-01  3.0510627929257594e-01  3.0517453125157973e-01  3.0524552984255143e-01  3.0533217947185498e-01  3.0541608750817217e-01  3.0547193414491525e-01  3.0553166550627697e-01  3.0557793583449183e-01  3.0562031780440263e-01  3.0565132574873383e-01  3.0566450305005871e-01  3.0568129881858624e-01  3.0570106200794961e-01  3.0569666634070775e-01  3.0569819642035423e-01  3.0569489214602275e-01  3.0568963562006035e-01  3.0567257928872443e-01  3.0566405160131371e-01  3.0566331859017282e-01  3.0563120013384748e-01  3.0561114488174762e-01  3.0559372844474408e-01  3.0560116804939236e-01  3.0557398844753780e-01  3.0555379435202468e-01  3.0554039396417693e-01  3.0550577340874557e-01  3.0549505862595955e-01  3.0547096776973026e-01  3.0544834606677879e-01  3.0542646479359814e-01  3.0540402565947267e-01  3.0538306075876159e-01  3.0536520366692615e-01  3.0534923928373453e-01  3.0533867609152127e-01  3.0532922281240560e-01  3.0531872032982971e-01  3.0530904978313339e-01  3.0530195311230290e-01  3.0529480619591104e-01  3.0528940795872828e-01  3.0528317287573631e-01  3.0527695924480108e-01  3.0527194876801406e-01  3.0526707745402759e-01  3.0526286445144069e-01  3.0525753865230709e-01  3.0525355507171748e-01  3.0524914931985914e-01  3.0524493520753526e-01  3.0524132538567517e-01  3.0523815459379888e-01  3.0523498032293245e-01  3.0523293808113566e-01  3.0523196463115954e-01  3.0523216810628767e-01  3.0523379343537099e-01  3.0523513814029163e-01  2.6762378756467803e-01  2.6765186357104942e-01  3.0521711009894198e-01  3.0520911049429944e-01  3.0520501388556570e-01  3.0519759535114493e-01  3.0519323131706122e-01  3.0519038949422028e-01  3.0519620032345984e-01  3.0520937326073744e-01  3.0523779119712080e-01  3.0527930958671134e-01  3.0532363409624635e-01  3.0547946907976126e-01  3.0560059714493060e-01  3.0580194849322107e-01  3.0605337635140173e-01  3.0627228909824539e-01  3.0656365935192686e-01  3.0691071202016340e-01  3.0722260511573291e-01  3.0743971184501256e-01  3.0758067642774894e-01  3.0760946580346821e-01  3.0743005152484282e-01  3.0705609898796427e-01  3.0645276074602124e-01  3.0577238065898499e-01  3.0515214388408524e-01  3.0469269582144848e-01  3.0454242403376180e-01  3.0459519155315551e-01  3.0484876440634551e-01  3.0497319109107029e-01  3.0508517475980573e-01  3.0502457057774279e-01  3.0492544427155460e-01  3.0484837419620031e-01  3.0479573087154271e-01  3.0482880185815181e-01  3.0492512827983692e-01  3.0503367607057025e-01  3.0514570164225252e-01  3.0525719228069198e-01  3.0536291504496288e-01  3.0544993137596971e-01  3.0553719176339605e-01  3.0562246524356967e-01  3.0566254393469755e-01  3.0568602901816122e-01  3.0571595153796977e-01  3.0574803218021107e-01  3.0574117635251286e-01  3.0575306130287261e-01  3.0573798484108311e-01  3.0572417318462997e-01  3.0573891754828736e-01  3.0572386395761331e-01  3.0571814902893685e-01  3.0569177339494508e-01  3.0568054977912751e-01  3.0567548696002850e-01  3.0566215842581906e-01  3.0564785006689271e-01  3.0561802703605750e-01  3.0560879070815611e-01  3.0558730425712832e-01  3.0555923934879342e-01  3.0553657856535493e-01  3.0552288718629744e-01  3.0549258791801881e-01  3.0546533563597716e-01  3.0544238097885779e-01  3.0541920828816049e-01  3.0539838598657437e-01  3.0538162856439660e-01  3.0536485479495562e-01  3.0535198618362880e-01  3.0533937424500629e-01  3.0533052230869617e-01  3.0532002176624529e-01  3.0531043498448146e-01  3.0530474066502139e-01  3.0529749143535234e-01  3.0529034881698713e-01  3.0528459714954098e-01  3.0527850267980927e-01  3.0527357622193185e-01  3.0526775705253589e-01  3.0526345835021523e-01  3.0525933611835265e-01  3.0525438516110764e-01  3.0524997436912304e-01  3.0524623702061571e-01  3.0524239266642050e-01  3.0523954887011434e-01  3.0523778629736570e-01  3.0523761935689514e-01  3.0523951994623028e-01  3.0524323790615787e-01  3.0524754447732882e-01  2.6750487526623218e-01  2.6757280048948340e-01  3.0521843294663598e-01  3.0520901560280345e-01  3.0520132839252823e-01  3.0519356347257581e-01  3.0518856628897556e-01  3.0518695528331519e-01  3.0519387097060591e-01  3.0520432476375670e-01  3.0523860167299238e-01  3.0526910341869595e-01  3.0534959020691149e-01  3.0547840118218111e-01  3.0563573279932532e-01  3.0585191498038067e-01  3.0609592232154559e-01  3.0642682474737598e-01  3.0682649481836549e-01  3.0716335866106337e-01  3.0745528520639048e-01  3.0783553790143603e-01  3.08101616176