<?xml version="1.0"?>
<VTKFile type="UnstructuredGrid"  version="0.1"  >
<UnstructuredGrid>
<Piece  NumberOfPoints="5151" NumberOfCells="10000">
<Points>
<DataArray  type="Float64"  NumberOfComponents="3"  format="ascii">0 0 0  0.02 0 0  0.04 0 0  0.06 0 0  0.08 0 0  0.1 0 0  0.12 0 0  0.14 0 0  0.16 0 0  0.18 0 0  0.2 0 0  0.22 0 0  0.24 0 0  0.26 0 0  0.28 0 0  0.3 0 0  0.32 0 0  0.34 0 0  0.36 0 0  0.38 0 0  0.4 0 0  0.42 0 0  0.44 0 0  0.46 0 0  0.48 0 0  0.5 0 0  0.52 0 0  0.54 0 0  0.5600000000000001 0 0  0.58 0 0  0.6 0 0  0.62 0 0  0.64 0 0  0.66 0 0  0.68 0 0  0.7 0 0  0.72 0 0  0.74 0 0  0.76 0 0  0.78 0 0  0.8 0 0  0.82 0 0  0.84 0 0  0.86 0 0  0.88 0 0  0.9 0 0  0.92 0 0  0.9399999999999999 0 0  0.96 0 0  0.98 0 0  1 0 0  1.02 0 0  1.04 0 0  1.06 0 0  1.08 0 0  1.1 0 0  1.12 0 0  1.14 0 0  1.16 0 0  1.18 0 0  1.2 0 0  1.22 0 0  1.24 0 0  1.26 0 0  1.28 0 0  1.3 0 0  1.32 0 0  1.34 0 0  1.36 0 0  1.38 0 0  1.4 0 0  1.42 0 0  1.44 0 0  1.46 0 0  1.48 0 0  1.5 0 0  1.52 0 0  1.54 0 0  1.56 0 0  1.58 0 0  1.6 0 0  1.62 0 0  1.64 0 0  1.66 0 0  1.68 0 0  1.7 0 0  1.72 0 0  1.74 0 0  1.76 0 0  1.78 0 0  1.8 0 0  1.82 0 0  1.84 0 0  1.86 0 0  1.88 0 0  1.9 0 0  1.92 0 0  1.94 0 0  1.96 0 0  1.98 0 0  2 0 0  0 0.02 0  0.02 0.02 0  0.04 0.02 0  0.06 0.02 0  0.08 0.02 0  0.1 0.02 0  0.12 0.02 0  0.14 0.02 0  0.16 0.02 0  0.18 0.02 0  0.2 0.02 0  0.22 0.02 0  0.24 0.02 0  0.26 0.02 0  0.28 0.02 0  0.3 0.02 0  0.32 0.02 0  0.34 0.02 0  0.36 0.02 0  0.38 0.02 0  0.4 0.02 0  0.42 0.02 0  0.44 0.02 0  0.46 0.02 0  0.48 0.02 0  0.5 0.02 0  0.52 0.02 0  0.54 0.02 0  0.5600000000000001 0.02 0  0.58 0.02 0  0.6 0.02 0  0.62 0.02 0  0.64 0.02 0  0.66 0.02 0  0.68 0.02 0  0.7 0.02 0  0.72 0.02 0  0.74 0.02 0  0.76 0.02 0  0.78 0.02 0  0.8 0.02 0  0.82 0.02 0  0.84 0.02 0  0.86 0.02 0  0.88 0.02 0  0.9 0.02 0  0.92 0.02 0  0.9399999999999999 0.02 0  0.96 0.02 0  0.98 0.02 0  1 0.02 0  1.02 0.02 0  1.04 0.02 0  1.06 0.02 0  1.08 0.02 0  1.1 0.02 0  1.12 0.02 0  1.14 0.02 0  1.16 0.02 0  1.18 0.02 0  1.2 0.02 0  1.22 0.02 0  1.24 0.02 0  1.26 0.02 0  1.28 0.02 0  1.3 0.02 0  1.32 0.02 0  1.34 0.02 0  1.36 0.02 0  1.38 0.02 0  1.4 0.02 0  1.42 0.02 0  1.44 0.02 0  1.46 0.02 0  1.48 0.02 0  1.5 0.02 0  1.52 0.02 0  1.54 0.02 0  1.56 0.02 0  1.58 0.02 0  1.6 0.02 0  1.62 0.02 0  1.64 0.02 0  1.66 0.02 0  1.68 0.02 0  1.7 0.02 0  1.72 0.02 0  1.74 0.02 0  1.76 0.02 0  1.78 0.02 0  1.8 0.02 0  1.82 0.02 0  1.84 0.02 0  1.86 0.02 0  1.88 0.02 0  1.9 0.02 0  1.92 0.02 0  1.94 0.02 0  1.96 0.02 0  1.98 0.02 0  2 0.02 0  0 0.04 0  0.02 0.04 0  0.04 0.04 0  0.06 0.04 0  0.08 0.04 0  0.1 0.04 0  0.12 0.04 0  0.14 0.04 0  0.16 0.04 0  0.18 0.04 0  0.2 0.04 0  0.22 0.04 0  0.24 0.04 0  0.26 0.04 0  0.28 0.04 0  0.3 0.04 0  0.32 0.04 0  0.34 0.04 0  0.36 0.04 0  0.38 0.04 0  0.4 0.04 0  0.42 0.04 0  0.44 0.04 0  0.46 0.04 0  0.48 0.04 0  0.5 0.04 0  0.52 0.04 0  0.54 0.04 0  0.5600000000000001 0.04 0  0.58 0.04 0  0.6 0.04 0  0.62 0.04 0  0.64 0.04 0  0.66 0.04 0  0.68 0.04 0  0.7 0.04 0  0.72 0.04 0  0.74 0.04 0  0.76 0.04 0  0.78 0.04 0  0.8 0.04 0  0.82 0.04 0  0.84 0.04 0  0.86 0.04 0  0.88 0.04 0  0.9 0.04 0  0.92 0.04 0  0.9399999999999999 0.04 0  0.96 0.04 0  0.98 0.04 0  1 0.04 0  1.02 0.04 0  1.04 0.04 0  1.06 0.04 0  1.08 0.04 0  1.1 0.04 0  1.12 0.04 0  1.14 0.04 0  1.16 0.04 0  1.18 0.04 0  1.2 0.04 0  1.22 0.04 0  1.24 0.04 0  1.26 0.04 0  1.28 0.04 0  1.3 0.04 0  1.32 0.04 0  1.34 0.04 0  1.36 0.04 0  1.38 0.04 0  1.4 0.04 0  1.42 0.04 0  1.44 0.04 0  1.46 0.04 0  1.48 0.04 0  1.5 0.04 0  1.52 0.04 0  1.54 0.04 0  1.56 0.04 0  1.58 0.04 0  1.6 0.04 0  1.62 0.04 0  1.64 0.04 0  1.66 0.04 0  1.68 0.04 0  1.7 0.04 0  1.72 0.04 0  1.74 0.04 0  1.76 0.04 0  1.78 0.04 0  1.8 0.04 0  1.82 0.04 0  1.84 0.04 0  1.86 0.04 0  1.88 0.04 0  1.9 0.04 0  1.92 0.04 0  1.94 0.04 0  1.96 0.04 0  1.98 0.04 0  2 0.04 0  0 0.06 0  0.02 0.06 0  0.04 0.06 0  0.06 0.06 0  0.08 0.06 0  0.1 0.06 0  0.12 0.06 0  0.14 0.06 0  0.16 0.06 0  0.18 0.06 0  0.2 0.06 0  0.22 0.06 0  0.24 0.06 0  0.26 0.06 0  0.28 0.06 0  0.3 0.06 0  0.32 0.06 0  0.34 0.06 0  0.36 0.06 0  0.38 0.06 0  0.4 0.06 0  0.42 0.06 0  0.44 0.06 0  0.46 0.06 0  0.48 0.06 0  0.5 0.06 0  0.52 0.06 0  0.54 0.06 0  0.5600000000000001 0.06 0  0.58 0.06 0  0.6 0.06 0  0.62 0.06 0  0.64 0.06 0  0.66 0.06 0  0.68 0.06 0  0.7 0.06 0  0.72 0.06 0  0.74 0.06 0  0.76 0.06 0  0.78 0.06 0  0.8 0.06 0  0.82 0.06 0  0.84 0.06 0  0.86 0.06 0  0.88 0.06 0  0.9 0.06 0  0.92 0.06 0  0.9399999999999999 0.06 0  0.96 0.06 0  0.98 0.06 0  1 0.06 0  1.02 0.06 0  1.04 0.06 0  1.06 0.06 0  1.08 0.06 0  1.1 0.06 0  1.12 0.06 0  1.14 0.06 0  1.16 0.06 0  1.18 0.06 0  1.2 0.06 0  1.22 0.06 0  1.24 0.06 0  1.26 0.06 0  1.28 0.06 0  1.3 0.06 0  1.32 0.06 0  1.34 0.06 0  1.36 0.06 0  1.38 0.06 0  1.4 0.06 0  1.42 0.06 0  1.44 0.06 0  1.46 0.06 0  1.48 0.06 0  1.5 0.06 0  1.52 0.06 0  1.54 0.06 0  1.56 0.06 0  1.58 0.06 0  1.6 0.06 0  1.62 0.06 0  1.64 0.06 0  1.66 0.06 0  1.68 0.06 0  1.7 0.06 0  1.72 0.06 0  1.74 0.06 0  1.76 0.06 0  1.78 0.06 0  1.8 0.06 0  1.82 0.06 0  1.84 0.06 0  1.86 0.06 0  1.88 0.06 0  1.9 0.06 0  1.92 0.06 0  1.94 0.06 0  1.96 0.06 0  1.98 0.06 0  2 0.06 0  0 0.08 0  0.02 0.08 0  0.04 0.08 0  0.06 0.08 0  0.08 0.08 0  0.1 0.08 0  0.12 0.08 0  0.14 0.08 0  0.16 0.08 0  0.18 0.08 0  0.2 0.08 0  0.22 0.08 0  0.24 0.08 0  0.26 0.08 0  0.28 0.08 0  0.3 0.08 0  0.32 0.08 0  0.34 0.08 0  0.36 0.08 0  0.38 0.08 0  0.4 0.08 0  0.42 0.08 0  0.44 0.08 0  0.46 0.08 0  0.48 0.08 0  0.5 0.08 0  0.52 0.08 0  0.54 0.08 0  0.5600000000000001 0.08 0  0.58 0.08 0  0.6 0.08 0  0.62 0.08 0  0.64 0.08 0  0.66 0.08 0  0.68 0.08 0  0.7 0.08 0  0.72 0.08 0  0.74 0.08 0  0.76 0.08 0  0.78 0.08 0  0.8 0.08 0  0.82 0.08 0  0.84 0.08 0  0.86 0.08 0  0.88 0.08 0  0.9 0.08 0  0.92 0.08 0  0.9399999999999999 0.08 0  0.96 0.08 0  0.98 0.08 0  1 0.08 0  1.02 0.08 0  1.04 0.08 0  1.06 0.08 0  1.08 0.08 0  1.1 0.08 0  1.12 0.08 0  1.14 0.08 0  1.16 0.08 0  1.18 0.08 0  1.2 0.08 0  1.22 0.08 0  1.24 0.08 0  1.26 0.08 0  1.28 0.08 0  1.3 0.08 0  1.32 0.08 0  1.34 0.08 0  1.36 0.08 0  1.38 0.08 0  1.4 0.08 0  1.42 0.08 0  1.44 0.08 0  1.46 0.08 0  1.48 0.08 0  1.5 0.08 0  1.52 0.08 0  1.54 0.08 0  1.56 0.08 0  1.58 0.08 0  1.6 0.08 0  1.62 0.08 0  1.64 0.08 0  1.66 0.08 0  1.68 0.08 0  1.7 0.08 0  1.72 0.08 0  1.74 0.08 0  1.76 0.08 0  1.78 0.08 0  1.8 0.08 0  1.82 0.08 0  1.84 0.08 0  1.86 0.08 0  1.88 0.08 0  1.9 0.08 0  1.92 0.08 0  1.94 0.08 0  1.96 0.08 0  1.98 0.08 0  2 0.08 0  0 0.1 0  0.02 0.1 0  0.04 0.1 0  0.06 0.1 0  0.08 0.1 0  0.1 0.1 0  0.12 0.1 0  0.14 0.1 0  0.16 0.1 0  0.18 0.1 0  0.2 0.1 0  0.22 0.1 0  0.24 0.1 0  0.26 0.1 0  0.28 0.1 0  0.3 0.1 0  0.32 0.1 0  0.34 0.1 0  0.36 0.1 0  0.38 0.1 0  0.4 0.1 0  0.42 0.1 0  0.44 0.1 0  0.46 0.1 0  0.48 0.1 0  0.5 0.1 0  0.52 0.1 0  0.54 0.1 0  0.5600000000000001 0.1 0  0.58 0.1 0  0.6 0.1 0  0.62 0.1 0  0.64 0.1 0  0.66 0.1 0  0.68 0.1 0  0.7 0.1 0  0.72 0.1 0  0.74 0.1 0  0.76 0.1 0  0.78 0.1 0  0.8 0.1 0  0.82 0.1 0  0.84 0.1 0  0.86 0.1 0  0.88 0.1 0  0.9 0.1 0  0.92 0.1 0  0.9399999999999999 0.1 0  0.96 0.1 0  0.98 0.1 0  1 0.1 0  1.02 0.1 0  1.04 0.1 0  1.06 0.1 0  1.08 0.1 0  1.1 0.1 0  1.12 0.1 0  1.14 0.1 0  1.16 0.1 0  1.18 0.1 0  1.2 0.1 0  1.22 0.1 0  1.24 0.1 0  1.26 0.1 0  1.28 0.1 0  1.3 0.1 0  1.32 0.1 0  1.34 0.1 0  1.36 0.1 0  1.38 0.1 0  1.4 0.1 0  1.42 0.1 0  1.44 0.1 0  1.46 0.1 0  1.48 0.1 0  1.5 0.1 0  1.52 0.1 0  1.54 0.1 0  1.56 0.1 0  1.58 0.1 0  1.6 0.1 0  1.62 0.1 0  1.64 0.1 0  1.66 0.1 0  1.68 0.1 0  1.7 0.1 0  1.72 0.1 0  1.74 0.1 0  1.76 0.1 0  1.78 0.1 0  1.8 0.1 0  1.82 0.1 0  1.84 0.1 0  1.86 0.1 0  1.88 0.1 0  1.9 0.1 0  1.92 0.1 0  1.94 0.1 0  1.96 0.1 0  1.98 0.1 0  2 0.1 0  0 0.12 0  0.02 0.12 0  0.04 0.12 0  0.06 0.12 0  0.08 0.12 0  0.1 0.12 0  0.12 0.12 0  0.14 0.12 0  0.16 0.12 0  0.18 0.12 0  0.2 0.12 0  0.22 0.12 0  0.24 0.12 0  0.26 0.12 0  0.28 0.12 0  0.3 0.12 0  0.32 0.12 0  0.34 0.12 0  0.36 0.12 0  0.38 0.12 0  0.4 0.12 0  0.42 0.12 0  0.44 0.12 0  0.46 0.12 0  0.48 0.12 0  0.5 0.12 0  0.52 0.12 0  0.54 0.12 0  0.5600000000000001 0.12 0  0.58 0.12 0  0.6 0.12 0  0.62 0.12 0  0.64 0.12 0  0.66 0.12 0  0.68 0.12 0  0.7 0.12 0  0.72 0.12 0  0.74 0.12 0  0.76 0.12 0  0.78 0.12 0  0.8 0.12 0  0.82 0.12 0  0.84 0.12 0  0.86 0.12 0  0.88 0.12 0  0.9 0.12 0  0.92 0.12 0  0.9399999999999999 0.12 0  0.96 0.12 0  0.98 0.12 0  1 0.12 0  1.02 0.12 0  1.04 0.12 0  1.06 0.12 0  1.08 0.12 0  1.1 0.12 0  1.12 0.12 0  1.14 0.12 0  1.16 0.12 0  1.18 0.12 0  1.2 0.12 0  1.22 0.12 0  1.24 0.12 0  1.26 0.12 0  1.28 0.12 0  1.3 0.12 0  1.32 0.12 0  1.34 0.12 0  1.36 0.12 0  1.38 0.12 0  1.4 0.12 0  1.42 0.12 0  1.44 0.12 0  1.46 0.12 0  1.48 0.12 0  1.5 0.12 0  1.52 0.12 0  1.54 0.12 0  1.56 0.12 0  1.58 0.12 0  1.6 0.12 0  1.62 0.12 0  1.64 0.12 0  1.66 0.12 0  1.68 0.12 0  1.7 0.12 0  1.72 0.12 0  1.74 0.12 0  1.76 0.12 0  1.78 0.12 0  1.8 0.12 0  1.82 0.12 0  1.84 0.12 0  1.86 0.12 0  1.88 0.12 0  1.9 0.12 0  1.92 0.12 0  1.94 0.12 0  1.96 0.12 0  1.98 0.12 0  2 0.12 0  0 0.14 0  0.02 0.14 0  0.04 0.14 0  0.06 0.14 0  0.08 0.14 0  0.1 0.14 0  0.12 0.14 0  0.14 0.14 0  0.16 0.14 0  0.18 0.14 0  0.2 0.14 0  0.22 0.14 0  0.24 0.14 0  0.26 0.14 0  0.28 0.14 0  0.3 0.14 0  0.32 0.14 0  0.34 0.14 0  0.36 0.14 0  0.38 0.14 0  0.4 0.14 0  0.42 0.14 0  0.44 0.14 0  0.46 0.14 0  0.48 0.14 0  0.5 0.14 0  0.52 0.14 0  0.54 0.14 0  0.5600000000000001 0.14 0  0.58 0.14 0  0.6 0.14 0  0.62 0.14 0  0.64 0.14 0  0.66 0.14 0  0.68 0.14 0  0.7 0.14 0  0.72 0.14 0  0.74 0.14 0  0.76 0.14 0  0.78 0.14 0  0.8 0.14 0  0.82 0.14 0  0.84 0.14 0  0.86 0.14 0  0.88 0.14 0  0.9 0.14 0  0.92 0.14 0  0.9399999999999999 0.14 0  0.96 0.14 0  0.98 0.14 0  1 0.14 0  1.02 0.14 0  1.04 0.14 0  1.06 0.14 0  1.08 0.14 0  1.1 0.14 0  1.12 0.14 0  1.14 0.14 0  1.16 0.14 0  1.18 0.14 0  1.2 0.14 0  1.22 0.14 0  1.24 0.14 0  1.26 0.14 0  1.28 0.14 0  1.3 0.14 0  1.32 0.14 0  1.34 0.14 0  1.36 0.14 0  1.38 0.14 0  1.4 0.14 0  1.42 0.14 0  1.44 0.14 0  1.46 0.14 0  1.48 0.14 0  1
[...]
<PointData  Scalars="sols[i]"> 
<DataArray  type="Float64"  Name="sols[i]"  format="ascii">1.8897118939576793e-01  1.3155824591252835e-01  1.3156015236657473e-01  1.3156376944938855e-01  1.3156998294580061e-01  1.3158010578707205e-01  1.3159591253081640e-01  1.3161971545104253e-01  1.3165417078943403e-01  1.3170242081181274e-01  1.3176792422994707e-01  1.3185470029324534e-01  1.3196651681063171e-01  1.3210836704081086e-01  1.3228527953127531e-01  1.3250148348080251e-01  1.3276363251405884e-01  1.3307586377447578e-01  1.3344833957837016e-01  1.3388544559910426e-01  1.3439013511298933e-01  1.3497246254764872e-01  1.3563176698830212e-01  1.3636603280023113e-01  1.3716884945729330e-01  1.3802493527842974e-01  1.3891132916084256e-01  1.3979797463534857e-01  1.4064614125179761e-01  1.4142258996632018e-01  1.4209261591894579e-01  1.4262943030423780e-01  1.4301478099650236e-01  1.4324571941981035e-01  1.4332464835417874e-01  1.4326209340089005e-01  1.4307242268799292e-01  1.4277285782571278e-01  1.4237987345844821e-01  1.4191347659060313e-01  1.4139268900451354e-01  1.4083634773634865e-01  1.4026220164572778e-01  1.3968580400568270e-01  1.3911963657754048e-01  1.3857304079507013e-01  1.3805217922539934e-01  1.3756028332797968e-01  1.3709851796720371e-01  1.3666736663340226e-01  1.3626528412846819e-01  1.3588998287444920e-01  1.3553945482802873e-01  1.3521044951784023e-01  1.3490474858680507e-01  1.3461591899038444e-01  1.3434492245959301e-01  1.3409005290498338e-01  1.3385023919192862e-01  1.3362475275997485e-01  1.3341270121624629e-01  1.3321384960427901e-01  1.3302759562810254e-01  1.3285505551730958e-01  1.3269409303319532e-01  1.3254654516703082e-01  1.3241113688736655e-01  1.3228805068314278e-01  1.3217645915865633e-01  1.3207742956003915e-01  1.3198922961879761e-01  1.3191271340417507e-01  1.3184636187097243e-01  1.3178965251921138e-01  1.3174161901041173e-01  1.3170192052397986e-01  1.3166935366551069e-01  1.3164312212388571e-01  1.3162220391372759e-01  1.3160572810801249e-01  1.3159304419521176e-01  1.3158329324867685e-01  1.3157596822116657e-01  1.3157051206869219e-01  1.3156645517548718e-01  1.3156351600682903e-01  1.3156131427662562e-01  1.3155971110981443e-01  1.3155849727492711e-01  1.3155760556762269e-01  1.3155692525136506e-01  1.3155640367275659e-01  1.3155599896552364e-01  1.3155568371674059e-01  1.3155543908804465e-01  1.3155525337198601e-01  1.3155511516817331e-01  1.3155501719976481e-01  1.3155495387464239e-01  1.3155492045963713e-01  3.0764008381530150e-01  1.3155819861154322e-01  6.8575500587663957e-02  6.8576652044108719e-02  6.8578859500719416e-02  6.8582589094175042e-02  6.8588495797168289e-02  6.8597452744834572e-02  6.8610564931165990e-02  6.8629165892867453e-02  6.8654808394992717e-02  6.8689248754546087e-02  6.8734433066515971e-02  6.8792493097379406e-02  6.8865718018690653e-02  6.8956579840771554e-02  6.9067703226201052e-02  6.9201904791508770e-02  6.9362085770156234e-02  6.9551442806900829e-02  6.9773007342690596e-02  7.0029777536909837e-02  7.0324236890432087e-02  7.0657845754635712e-02  7.1030245715401216e-02  7.1438697587808714e-02  7.1877328011707833e-02  7.2335948877982489e-02  7.2801722153515519e-02  7.3257521051671298e-02  7.3687046253981037e-02  7.4072258223402840e-02  7.4397452890464066e-02  7.4651056779695968e-02  7.4825519408612706e-02  7.4918096765325945e-02  7.4931701727600275e-02  7.4871366333703712e-02  7.4745038277974227e-02  7.4561964214868021e-02  7.4332325727441764e-02  7.4067199250139312e-02  7.3777495778837354e-02  7.3473660835997767e-02  7.3165082515928223e-02  7.2859399580544493e-02  7.2562132115348330e-02  7.2277174798778890e-02  7.2007072923284246e-02  7.1752492229821052e-02  7.1513724714368038e-02  7.1290111003312562e-02  7.1080836993485691e-02  7.0884664176082732e-02  7.0700713172145976e-02  7.0527739282914448e-02  7.0364922209187386e-02  7.0211325912226383e-02  7.0066563206383811e-02  6.9929878003446230e-02  6.9800928478156707e-02  6.9679482623577385e-02  6.9565312249447092e-02  6.9458239752775014e-02  6.9358233297410601e-02  6.9265212666454870e-02  6.9179174531444454e-02  6.9100059535027167e-02  6.9027816489730998e-02  6.8962339982987467e-02  6.8903510788532824e-02  6.8851128113822824e-02  6.8804947566737107e-02  6.8764686776804806e-02  6.8729970365019155e-02  6.8700395420018753e-02  6.8675514401244378e-02  6.8654843215643441e-02  6.8637882181123475e-02  6.8624138005842591e-02  6.8613128174231375e-02  6.8604396344894653e-02  6.8597532796320776e-02  6.8592172891166633e-02  6.8588005959443518e-02  6.8584770648358717e-02  6.8582255842984885e-02  6.8580292945961407e-02  6.8578751626236487e-02  6.8577532792561388e-02  6.8576563270912050e-02  6.8575789508116075e-02  6.8575172803994416e-02  6.8574684640179059e-02  6.8574303131814091e-02  6.8574010819669601e-02  6.8573792856872762e-02  6.8573636041478175e-02  6.8573528600418293e-02  6.8573460393436619e-02  6.8573423631740030e-02  1.3155492057197715e-01  1.3155994873878507e-01  6.8576568010174310e-02  6.8578238576499015e-02  6.8581297363448146e-02  6.8586198421127564e-02  6.8593521302381541e-02  6.8603973937781129e-02  6.8618408776629933e-02  6.8637835444714718e-02  6.8663424352590180e-02  6.8696501707535357e-02  6.8738542372489234e-02  6.8791154764228757e-02  6.8856068873935597e-02  6.8935141095240626e-02  6.9030316348886414e-02  6.9143638702405558e-02  6.9277279843726267e-02  6.9433422711670523e-02  6.9614256096550753e-02  6.9821810538390372e-02  7.0057793689801584e-02  7.0323110069815856e-02  7.0617881143092018e-02  7.0940095458240121e-02  7.1286824483950351e-02  7.1652704700515255e-02  7.2030242260095287e-02  7.2410438739888644e-02  7.2783314707325811e-02  7.3136971714348881e-02  7.3457473579874588e-02  7.3730560869353937e-02  7.3944890430676202e-02  7.4091285522738512e-02  7.4166203740971201e-02  7.4168685643315024e-02  7.4101723453689955e-02  7.3971802848591825e-02  7.3788282502453506e-02  7.3562304191982883e-02  7.3306031438455280e-02  7.3031366303614120e-02  7.2748879198290026e-02  7.2467426617742622e-02  7.2193472162625907e-02  7.1931274878333201e-02  7.1683439683576322e-02  7.1450583374799509e-02  7.1233159772757265e-02  7.1030438772813814e-02  7.0841410309830682e-02  7.0664870255328097e-02  7.0499897276802934e-02  7.0345419350352309e-02  7.0200344068498677e-02  7.0063888204036612e-02  6.9935465236770383e-02  6.9814402332656039e-02  6.9700358143023250e-02  6.9592921757678158e-02  6.9491926479039456e-02  6.9397140917864308e-02  6.9308414302480095e-02  6.9225734605400296e-02  6.9148963301997504e-02  6.9078061815655747e-02  6.9012957072760256e-02  6.8953565985077167e-02  6.8899766430458975e-02  6.8851435633060246e-02  6.8808376044297084e-02  6.8770377026910259e-02  6.8737172451375103e-02  6.8708462904029738e-02  6.8683909942029914e-02  6.8663147191467433e-02  6.8645785226164810e-02  6.8631423806712610e-02  6.8619663653809365e-02  6.8610122503537166e-02  6.8602440233093101e-02  6.8596297372696138e-02  6.8591410297685257e-02  6.8587536191241166e-02  6.8584471856686494e-02  6.8582049703555858e-02  6.8580133969430301e-02  6.8578616046452212e-02  6.8577410786717585e-02  6.8576452198045604e-02  6.8575689561262310e-02  6.8575084420755814e-02  6.8574607701612569e-02  6.8574237145194103e-02  6.8573955540281839e-02  6.8573748769596127e-02  6.8573604663665397e-02  6.8573512621921490e-02  6.8573463767279949e-02  1.3155495425696526e-01  1.3156317734092429e-01  6.8578559308333148e-02  6.8581050338808416e-02  6.8585330002120276e-02  6.8591812244233843e-02  6.8601008504250494e-02  6.8613491394286352e-02  6.8629901779159549e-02  6.8650968008487426e-02  6.8677520253726670e-02  6.8710492338933449e-02  6.8750922093498382e-02  6.8799934275348348e-02  6.8858729928057583e-02  6.8928563208548441e-02  6.9010741402086184e-02  6.9106629859044560e-02  6.9217627733145576e-02  6.9345137626231970e-02  6.9490682868876746e-02  6.9655650149722123e-02  6.9841380439808476e-02  7.0049103251005176e-02  7.0279951889780326e-02  7.0534250040000787e-02  7.0813060256541452e-02  7.1117242218244711e-02  7.1447331976164916e-02  7.1803680549117607e-02  7.2184298081996973e-02  7.2580116033718736e-02  7.2974378271924670e-02  7.3344512600294107e-02  7.3667278527840330e-02  7.3922098944827069e-02  7.4093354091151836e-02  7.4172108069427520e-02  7.4156613654919046e-02  7.4052781515929658e-02  7.3872432444059166e-02  7.3631674259382857e-02  7.3348295469498268e-02  7.3040121173203312e-02  7.2723014406597147e-02  7.2409594081374914e-02  7.2108512659891558e-02  7.1825154511140396e-02  7.1561994212036753e-02  7.1319611730188831e-02  7.1097285492349199e-02  7.0893573051406103e-02  7.0706796041491660e-02  7.0535162934578066e-02  7.0376971370437011e-02  7.0230636264325921e-02  7.0094827837929266e-02  6.9968359980828218e-02  6.9850362193763546e-02  6.9739855297432179e-02  6.9636333741274731e-02  6.9539220503647040e-02  6.9448142853874628e-02  6.9362739166035220e-02  6.9282805904776743e-02  6.9208124177418923e-02  6.9138559378311037e-02  6.9073955825798797e-02  6.9014244422360899e-02  6.8959305612429384e-02  6.8909051170294625e-02  6.8863363906169400e-02  6.8822132611437561e-02  6.8785198701677805e-02  6.8752406113534378e-02  6.8723558360569925e-02  6.8698433182992139e-02  6.8676771420222826e-02  6.8658288608143866e-02  6.8642677289552964e-02  6.8629614462986613e-02  6.8618777773687564e-02  6.8609855222217644e-02  6.8602558619952445e-02  6.8596627749509115e-02  6.8591832590201823e-02  6.8587973885867820e-02  6.8584881396518277e-02  6.8582410035748456e-02  6.8580438515281977e-02  6.8578866148883477e-02  6.8577611174710604e-02  6.8576608163642777e-02  6.8575806184391214e-02  6.8575166402425988e-02  6.8574660174516189e-02  6.8574266339592224e-02  6.8573968945360692e-02  6.8573755373981568e-02  6.8573615419554368e-02  6.8573540702763086e-02  1.3155501908686762e-01  1.3156854121914377e-01  6.8581794907169452e-02  6.8585351315418125e-02  6.8591121981697006e-02  6.8599446105073084e-02  6.8610775307612337e-02  6.8625591796118143e-02  6.8644395098053784e-02  6.8667720522938069e-02  6.8696155746833368e-02  6.8730346921646382e-02  6.8771001770419879e-02  6.8818867178527476e-02  6.8874737806530945e-02  6.8939384918669008e-02  6.9013619021690342e-02  6.9098256490347482e-02  6.9194183876413948e-02  6.9302313942136901e-02  6.9423757701249630e-02  6.9559817258229906e-02  6.9712363296207072e-02  6.9883692525071303e-02  7.0077212203706385e-02  7.0297993153354776e-02  7.0553918851911923e-02  7.0856278774935708e-02  7.1219083487298801e-02  7.1657437665448895e-02  7.2181492697906219e-02  7.2782899433449330e-02  7.3430887207492856e-02  7.4079097142237676e-02  7.4675021330065899e-02  7.5169522923541662e-02  7.5523689867453475e-02  7.5713373432240272e-02  7.5732088307231729e-02  7.5590976181130975e-02  7.5314675489735472e-02  7.4935249738288620e-02  7.4487626377791785e-02  7.4006046343121343e-02  7.3520220058889127e-02  7.3052275825107635e-02  7.2615904162743147e-02  7.2217932217322617e-02  7.1860301986548331e-02  7.1541589902815325e-02  7.1258794674075851e-02  7.1008074061568796e-02  7.0785331671316551e-02  7.0586780818169312e-02  7.0409005760641741e-02  7.0248949904601773e-02  7.0104046536474174e-02  6.9972147783758432e-02  6.9851435590980726e-02  6.9740458767143895e-02  6.9637977547555588e-02  6.9542994606088371e-02  6.9454707626158796e-02  6.9372507826088337e-02  6.9295857878037062e-02  6.9224364165198199e-02  6.9157700703004435e-02  6.9095611440564253e-02  6.9037899724981408e-02  6.8984410852167430e-02  6.8935011682496578e-02  6.8889607142662054e-02  6.8848097546576420e-02  6.8810399949630494e-02  6.8776424179427753e-02  6.8746060614120835e-02  6.8719180554652023e-02  6.8695623425465105e-02  6.8675187209867650e-02  6.8657634971905121e-02  6.8642698649562170e-02  6.8630093406627651e-02  6.8619535143313412e-02  6.8610751122212890e-02  6.8603491185710741e-02  6.8597529138974961e-02  6.8592663569525605e-02  6.8588716123580473e-02  6.8585529459803535e-02  6.8582966113173563e-02  6.8580908148906022e-02  6.8579255622734522e-02  6.8577926466376990e-02  6.8576855093049296e-02  6.8575991185483715e-02  6.8575297295758370e-02  6.8574746457055219e-02  6.8574319468288888e-02  6.8574002710612925e-02  6.8573787458898902e-02  6.8573668828795190e-02  1.3155512237702904e-01  1.3157691249090805e-01  6.8586666728217546e-02  6.8591396300013832e-02  6.8598785259838910e-02  6.8609067097983048e-02  6.8622632456398783e-02  6.8639900541124760e-02  6.8661286634981819e-02  6.8687210109006594e-02  6.8718106777006863e-02  6.8754437257574713e-02  6.8796682507834842e-02  6.8845323323425758e-02  6.8900848487793348e-02  6.8963692642427660e-02  6.9034295437281151e-02  6.9113105941110170e-02  6.9200694006108149e-02  6.9297776513611561e-02  6.9405546482101482e-02  6.9525825328360047e-02  6.9661653730902551e-02  6.9817892319891231e-02  7.0002621769853932e-02  7.0229213953125688e-02  7.0519436999768981e-02  7.0905745401536477e-02  7.1430636829949906e-02  7.2144383990025249e-02  7.3087573309819590e-02  7.4253055287423694e-02  7.5575931038840874e-02  7.6948670735282707e-02  7.8239629713230674e-02  7.9322059134014841e-02  8.0095568056720010e-02  8.0497843894811835e-02  8.0515062930131012e-02  8.0182358104045545e-02  7.9567469990943718e-02  7.8750861731929911e-02  7.7814752330833362e-02  7.6837005664807556e-02  7.5882339791301531e-02  7.4994245088501554e-02  7.4194850556420250e-02  7.3491088887870870e-02  7.2880569209057861e-02  7.2355602936021848e-02  7.1906198850861455e-02  7.1521880688690254e-02  7.1192788270231233e-02  7.0910089586510211e-02  7.0666102324371954e-02  7.0454331119782568e-02  7.0269312339284157e-02  7.0106568103458777e-02  6.9962381238895630e-02  6.9833696214823937e-02  6.9718035551129501e-02  6.9613366025467485e-02  6.9518039763625708e-02  6.9430737906267581e-02  6.9350399693859338e-02  6.9276156701857758e-02  6.9207335574810597e-02  6.9143408556874661e-02  6.9083967485733380e-02  6.9028697019220278e-02  6.8977370105279684e-02  6.8929829134950563e-02  6.8885960404080585e-02  6.8845689783749220e-02  6.8808969432542388e-02  6.8775752794059161e-02  6.8745982393651803e-02  6.8719570926211754e-02  6.8696383597776176e-02  6.8676233764902117e-02  6.8658882845754804e-02  6.8644061403896880e-02  6.8631489295384457e-02  6.8620894225035090e-02  6.8612023459143009e-02  6.8604647962936985e-02  6.8598558887113081e-02  6.8593567400732983e-02  6.8589501393370444e-02  6.8586205500850247e-02  6.8583542185848681e-02  6.8581391797263483e-02  6.8579653203327401e-02  6.8578243964619687e-02  6.8577099203437339e-02  6.8576170003448109e-02  6.8575420974085644e-02  6.8574827461228297e-02  6.8574373930334526e-02  6.8574054063880716e-02  6.8573870014473876e-02  1.3155527573038353e-01  1.3158933541858286e-01  6.8593616108270514e-02  6.8599401393205139e-02  6.8608325367869261e-02  6.8620503423376500e-02  6.8636249114399570e-02  6.8655924033232688e-02  6.8679891114824615e-02  6.8708510743107035e-02  6.8742140770447949e-02  6.8781141539812268e-02  6.8825858972078227e-02  6.8876619672271849e-02  6.8933707320193452e-02  6.8997365906406080e-02  6.9067797017818011e-02  6.9145287716987761e-02  6.9230321602398226e-02  6.9323823012270289e-02  6.9427442379546705e-02  6.9544332701600944e-02  6.9679841323015218e-02  6.9843350114116229e-02  7.0051274388383558e-02  7.0332675492525143e-02  7.0737893606505467e-02  7.1346906198017812e-02  7.2272398686524381e-02  7.3664388096299993e-02  7.5668240182433885e-02  7.8309859452160846e-02  8.1467470190998884e-02  8.4885897719966144e-02  8.8194092809549735e-02  9.1003341208074989e-02  9.2987141105440943e-02  9.3929948339237290e-02  9.3789657286207820e-02  9.2710774163272072e-02  9.0940962271884765e-02  8.8736750422309829e-02  8.6331642750169760e-02  8.3932250719532073e-02  8.1695866811753837e-02  7.9707429738292576e-02  7.7990232135249610e-02  7.6534344631860318e-02  7.5314904029690419e-02  7.4300604745485971e-02  7.3459499385995330e-02  7.2762535090044447e-02  7.2184473840607458e-02  7.1703835539555130e-02  7.1302735610017376e-02  7.0966517695249851e-02  7.0683159120511346e-02  7.0442864590099338e-02  7.0237668376392434e-02  7.0061120095126148e-02  6.9907978881925376e-02  6.9773984369181655e-02  6.9655732479384211e-02  6.9550455332774500e-02  6.9455941871970586e-02  6.9370391064502213e-02  6.9292409304961333e-02  6.9220885080438249e-02  6.9154946591791999e-02  6.9093953611574194e-02  6.9037409858266424e-02  6.8984977544071860e-02  6.8936428716994347e-02  6.8891625897019471e-02  6.8850498979513439e-02  6.8813018536290627e-02  6.8779166508683959e-02  6.8748905791881490e-02  6.8722146198083936e-02  6.8698725486066314e-02  6.8678409372118041e-02  6.8660913284815939e-02  6.8645935032305649e-02  6.8633184430927405e-02  6.8622395981387335e-02  6.8613331619131523e-02  6.8605774874641534e-02  6.8599524770758730e-02  6.8594393730264408e-02  6.8590207221902913e-02  6.8586806566222250e-02  6.8584049694410912e-02  6.8581813904261352e-02  6.8579996445695318e-02  6.8578514435801957e-02  6.8577303746749543e-02  6.8576317239753812e-02  6.8575522225666874e-02  6.8574899802776909e-02  6.8574446378609641e-02  6.8574174254163303e-02  1.3155550119785622e-01  1.3160684339692214e-01  6.8603085464424854e-02  6.8609528837127648e-02  6.8619642900145661e-02  6.8633445354494782e-02  6.8651146170997074e-02  6.8673032100414408e-02  6.8699425830828262e-02  6.8730663589876659e-02  6.8767086355817020e-02  6.8809024782100020e-02  6.8856783827353010e-02  6.8910650514504485e-02  6.8970816689954639e-02  6.9037489980244116e-02  6.9110877393205664e-02  6.9191333209528166e-02  6.9279664373234684e-02  6.9377455073835123e-02  6.9487667305991915e-02  6.9615587015814342e-02  6.9770451219012777e-02  6.9968661651981651e-02  7.0240587717741346e-02  7.0644329270363043e-02  7.1289516910773787e-02  7.2365451069875561e-02  7.4168523125705141e-02  7.7170462850428431e-02  8.1956433279864169e-02  8.8905966422969093e-02  9.8146546491874417e-02  1.0940797420579321e-01  1.2163026042651204e-01  1.3306129689911833e-01  1.4155417518408819e-01  1.4516138169076639e-01  1.4329809661287185e-01  1.3720918299423684e-01  1.2888533059938567e-01  1.1989397635083357e-01  1.1120410268948891e-01  1.0341817917808500e-01  9.6837645516360010e-02  9.1465948102142383e-02  8.7139922564259162e-02  8.3674033813333257e-02  8.0905545809785706e-02  7.8693700544343978e-02  7.6922125838916972e-02  7.5499312223818629e-02  7.4353166346529109e-02  7.3426545693792131e-02  7.2674495562907518e-02  7.2061748662155381e-02  7.1560340513740370e-02  7.1148004818174904e-02  7.0807101509846190e-02  7.0523505932746214e-02  7.0285951883897538e-02  7.0085401255379209e-02  6.9914612828703718e-02  6.9767797818024738e-02  6.9640318516968489e-02  6.9528498888573306e-02  6.9429390709387945e-02  6.9340682760682185e-02  6.9260571869653814e-02  6.9187666428376898e-02  6.9120906780438723e-02  6.9059529393399391e-02  6.9002993101241208e-02  6.8950940658646501e-02  6.8903163168946360e-02  6.8859558272292426e-02  6.8820084646133373e-02  6.8784712079201393e-02  6.8753359878153508e-02  6.8725855092489199e-02  6.8701920034772490e-02  6.8681209310875554e-02  6.8663361843557938e-02  6.8648042144217478e-02  6.8634960561374789e-02  6.8623867405850178e-02  6.8614538249874887e-02  6.8606762421694070e-02  6.8600336516431229e-02  6.8595066425433115e-02  6.8590769301970944e-02  6.8587277878156133e-02  6.8584443906933010e-02  6.8582139853674451e-02  6.8580260036215229e-02  6.8578720821454942e-02  6.8577458960552881e-02  6.8576430558365820e-02  6.8575611315890073e-02  6.8574999655118180e-02  6.8574619823347255e-02  1.3155582549394595e-01  1.3163030368624187e-01  6.8615454297998826e-02  6.8621872625970429e-02  6.8632558262247179e-02  6.8647493839055759e-02  6.8666751814065466e-02  6.8690514052355323e-02  6.8719055185755940e-02  6.8752708502767712e-02  6.8791842982396670e-02  6.8836827076628956e-02  6.8888031269195807e-02  6.8945794845126182e-02  6.9010442064947788e-02  6.9082350112944807e-02  6.9162055364968320e-02  6.9250532777003257e-02  6.9349561435759488e-02  6.9462307180539903e-02  6.9594242475856355e-02  6.9754403131769491e-02  6.99575350714