<?xml version="1.0"?>
<VTKFile type="UnstructuredGrid"  version="0.1"  >
<UnstructuredGrid>
<Piece  NumberOfPoints="5151" NumberOfCells="10000">
<Points>
<DataArray  type="Float64"  NumberOfComponents="3"  format="ascii">0 0 0  0.02 0 0  0.04 0 0  0.06 0 0  0.08 0 0  0.1 0 0  0.12 0 0  0.14 0 0  0.16 0 0  0.18 0 0  0.2 0 0  0.22 0 0  0.24 0 0  0.26 0 0  0.28 0 0  0.3 0 0  0.32 0 0  0.34 0 0  0.36 0 0  0.38 0 0  0.4 0 0  0.42 0 0  0.44 0 0  0.46 0 0  0.48 0 0  0.5 0 0  0.52 0 0  0.54 0 0  0.5600000000000001 0 0  0.58 0 0  0.6 0 0  0.62 0 0  0.64 0 0  0.66 0 0  0.68 0 0  0.7 0 0  0.72 0 0  0.74 0 0  0.76 0 0  0.78 0 0  0.8 0 0  0.82 0 0  0.84 0 0  0.86 0 0  0.88 0 0  0.9 0 0  0.92 0 0  0.9399999999999999 0 0  0.96 0 0  0.98 0 0  1 0 0  1.02 0 0  1.04 0 0  1.06 0 0  1.08 0 0  1.1 0 0  1.12 0 0  1.14 0 0  1.16 0 0  1.18 0 0  1.2 0 0  1.22 0 0  1.24 0 0  1.26 0 0  1.28 0 0  1.3 0 0  1.32 0 0  1.34 0 0  1.36 0 0  1.38 0 0  1.4 0 0  1.42 0 0  1.44 0 0  1.46 0 0  1.48 0 0  1.5 0 0  1.52 0 0  1.54 0 0  1.56 0 0  1.58 0 0  1.6 0 0  1.62 0 0  1.64 0 0  1.66 0 0  1.68 0 0  1.7 0 0  1.72 0 0  1.74 0 0  1.76 0 0  1.78 0 0  1.8 0 0  1.82 0 0  1.84 0 0  1.86 0 0  1.88 0 0  1.9 0 0  1.92 0 0  1.94 0 0  1.96 0 0  1.98 0 0  2 0 0  0 0.02 0  0.02 0.02 0  0.04 0.02 0  0.06 0.02 0  0.08 0.02 0  0.1 0.02 0  0.12 0.02 0  0.14 0.02 0  0.16 0.02 0  0.18 0.02 0  0.2 0.02 0  0.22 0.02 0  0.24 0.02 0  0.26 0.02 0  0.28 0.02 0  0.3 0.02 0  0.32 0.02 0  0.34 0.02 0  0.36 0.02 0  0.38 0.02 0  0.4 0.02 0  0.42 0.02 0  0.44 0.02 0  0.46 0.02 0  0.48 0.02 0  0.5 0.02 0  0.52 0.02 0  0.54 0.02 0  0.5600000000000001 0.02 0  0.58 0.02 0  0.6 0.02 0  0.62 0.02 0  0.64 0.02 0  0.66 0.02 0  0.68 0.02 0  0.7 0.02 0  0.72 0.02 0  0.74 0.02 0  0.76 0.02 0  0.78 0.02 0  0.8 0.02 0  0.82 0.02 0  0.84 0.02 0  0.86 0.02 0  0.88 0.02 0  0.9 0.02 0  0.92 0.02 0  0.9399999999999999 0.02 0  0.96 0.02 0  0.98 0.02 0  1 0.02 0  1.02 0.02 0  1.04 0.02 0  1.06 0.02 0  1.08 0.02 0  1.1 0.02 0  1.12 0.02 0  1.14 0.02 0  1.16 0.02 0  1.18 0.02 0  1.2 0.02 0  1.22 0.02 0  1.24 0.02 0  1.26 0.02 0  1.28 0.02 0  1.3 0.02 0  1.32 0.02 0  1.34 0.02 0  1.36 0.02 0  1.38 0.02 0  1.4 0.02 0  1.42 0.02 0  1.44 0.02 0  1.46 0.02 0  1.48 0.02 0  1.5 0.02 0  1.52 0.02 0  1.54 0.02 0  1.56 0.02 0  1.58 0.02 0  1.6 0.02 0  1.62 0.02 0  1.64 0.02 0  1.66 0.02 0  1.68 0.02 0  1.7 0.02 0  1.72 0.02 0  1.74 0.02 0  1.76 0.02 0  1.78 0.02 0  1.8 0.02 0  1.82 0.02 0  1.84 0.02 0  1.86 0.02 0  1.88 0.02 0  1.9 0.02 0  1.92 0.02 0  1.94 0.02 0  1.96 0.02 0  1.98 0.02 0  2 0.02 0  0 0.04 0  0.02 0.04 0  0.04 0.04 0  0.06 0.04 0  0.08 0.04 0  0.1 0.04 0  0.12 0.04 0  0.14 0.04 0  0.16 0.04 0  0.18 0.04 0  0.2 0.04 0  0.22 0.04 0  0.24 0.04 0  0.26 0.04 0  0.28 0.04 0  0.3 0.04 0  0.32 0.04 0  0.34 0.04 0  0.36 0.04 0  0.38 0.04 0  0.4 0.04 0  0.42 0.04 0  0.44 0.04 0  0.46 0.04 0  0.48 0.04 0  0.5 0.04 0  0.52 0.04 0  0.54 0.04 0  0.5600000000000001 0.04 0  0.58 0.04 0  0.6 0.04 0  0.62 0.04 0  0.64 0.04 0  0.66 0.04 0  0.68 0.04 0  0.7 0.04 0  0.72 0.04 0  0.74 0.04 0  0.76 0.04 0  0.78 0.04 0  0.8 0.04 0  0.82 0.04 0  0.84 0.04 0  0.86 0.04 0  0.88 0.04 0  0.9 0.04 0  0.92 0.04 0  0.9399999999999999 0.04 0  0.96 0.04 0  0.98 0.04 0  1 0.04 0  1.02 0.04 0  1.04 0.04 0  1.06 0.04 0  1.08 0.04 0  1.1 0.04 0  1.12 0.04 0  1.14 0.04 0  1.16 0.04 0  1.18 0.04 0  1.2 0.04 0  1.22 0.04 0  1.24 0.04 0  1.26 0.04 0  1.28 0.04 0  1.3 0.04 0  1.32 0.04 0  1.34 0.04 0  1.36 0.04 0  1.38 0.04 0  1.4 0.04 0  1.42 0.04 0  1.44 0.04 0  1.46 0.04 0  1.48 0.04 0  1.5 0.04 0  1.52 0.04 0  1.54 0.04 0  1.56 0.04 0  1.58 0.04 0  1.6 0.04 0  1.62 0.04 0  1.64 0.04 0  1.66 0.04 0  1.68 0.04 0  1.7 0.04 0  1.72 0.04 0  1.74 0.04 0  1.76 0.04 0  1.78 0.04 0  1.8 0.04 0  1.82 0.04 0  1.84 0.04 0  1.86 0.04 0  1.88 0.04 0  1.9 0.04 0  1.92 0.04 0  1.94 0.04 0  1.96 0.04 0  1.98 0.04 0  2 0.04 0  0 0.06 0  0.02 0.06 0  0.04 0.06 0  0.06 0.06 0  0.08 0.06 0  0.1 0.06 0  0.12 0.06 0  0.14 0.06 0  0.16 0.06 0  0.18 0.06 0  0.2 0.06 0  0.22 0.06 0  0.24 0.06 0  0.26 0.06 0  0.28 0.06 0  0.3 0.06 0  0.32 0.06 0  0.34 0.06 0  0.36 0.06 0  0.38 0.06 0  0.4 0.06 0  0.42 0.06 0  0.44 0.06 0  0.46 0.06 0  0.48 0.06 0  0.5 0.06 0  0.52 0.06 0  0.54 0.06 0  0.5600000000000001 0.06 0  0.58 0.06 0  0.6 0.06 0  0.62 0.06 0  0.64 0.06 0  0.66 0.06 0  0.68 0.06 0  0.7 0.06 0  0.72 0.06 0  0.74 0.06 0  0.76 0.06 0  0.78 0.06 0  0.8 0.06 0  0.82 0.06 0  0.84 0.06 0  0.86 0.06 0  0.88 0.06 0  0.9 0.06 0  0.92 0.06 0  0.9399999999999999 0.06 0  0.96 0.06 0  0.98 0.06 0  1 0.06 0  1.02 0.06 0  1.04 0.06 0  1.06 0.06 0  1.08 0.06 0  1.1 0.06 0  1.12 0.06 0  1.14 0.06 0  1.16 0.06 0  1.18 0.06 0  1.2 0.06 0  1.22 0.06 0  1.24 0.06 0  1.26 0.06 0  1.28 0.06 0  1.3 0.06 0  1.32 0.06 0  1.34 0.06 0  1.36 0.06 0  1.38 0.06 0  1.4 0.06 0  1.42 0.06 0  1.44 0.06 0  1.46 0.06 0  1.48 0.06 0  1.5 0.06 0  1.52 0.06 0  1.54 0.06 0  1.56 0.06 0  1.58 0.06 0  1.6 0.06 0  1.62 0.06 0  1.64 0.06 0  1.66 0.06 0  1.68 0.06 0  1.7 0.06 0  1.72 0.06 0  1.74 0.06 0  1.76 0.06 0  1.78 0.06 0  1.8 0.06 0  1.82 0.06 0  1.84 0.06 0  1.86 0.06 0  1.88 0.06 0  1.9 0.06 0  1.92 0.06 0  1.94 0.06 0  1.96 0.06 0  1.98 0.06 0  2 0.06 0  0 0.08 0  0.02 0.08 0  0.04 0.08 0  0.06 0.08 0  0.08 0.08 0  0.1 0.08 0  0.12 0.08 0  0.14 0.08 0  0.16 0.08 0  0.18 0.08 0  0.2 0.08 0  0.22 0.08 0  0.24 0.08 0  0.26 0.08 0  0.28 0.08 0  0.3 0.08 0  0.32 0.08 0  0.34 0.08 0  0.36 0.08 0  0.38 0.08 0  0.4 0.08 0  0.42 0.08 0  0.44 0.08 0  0.46 0.08 0  0.48 0.08 0  0.5 0.08 0  0.52 0.08 0  0.54 0.08 0  0.5600000000000001 0.08 0  0.58 0.08 0  0.6 0.08 0  0.62 0.08 0  0.64 0.08 0  0.66 0.08 0  0.68 0.08 0  0.7 0.08 0  0.72 0.08 0  0.74 0.08 0  0.76 0.08 0  0.78 0.08 0  0.8 0.08 0  0.82 0.08 0  0.84 0.08 0  0.86 0.08 0  0.88 0.08 0  0.9 0.08 0  0.92 0.08 0  0.9399999999999999 0.08 0  0.96 0.08 0  0.98 0.08 0  1 0.08 0  1.02 0.08 0  1.04 0.08 0  1.06 0.08 0  1.08 0.08 0  1.1 0.08 0  1.12 0.08 0  1.14 0.08 0  1.16 0.08 0  1.18 0.08 0  1.2 0.08 0  1.22 0.08 0  1.24 0.08 0  1.26 0.08 0  1.28 0.08 0  1.3 0.08 0  1.32 0.08 0  1.34 0.08 0  1.36 0.08 0  1.38 0.08 0  1.4 0.08 0  1.42 0.08 0  1.44 0.08 0  1.46 0.08 0  1.48 0.08 0  1.5 0.08 0  1.52 0.08 0  1.54 0.08 0  1.56 0.08 0  1.58 0.08 0  1.6 0.08 0  1.62 0.08 0  1.64 0.08 0  1.66 0.08 0  1.68 0.08 0  1.7 0.08 0  1.72 0.08 0  1.74 0.08 0  1.76 0.08 0  1.78 0.08 0  1.8 0.08 0  1.82 0.08 0  1.84 0.08 0  1.86 0.08 0  1.88 0.08 0  1.9 0.08 0  1.92 0.08 0  1.94 0.08 0  1.96 0.08 0  1.98 0.08 0  2 0.08 0  0 0.1 0  0.02 0.1 0  0.04 0.1 0  0.06 0.1 0  0.08 0.1 0  0.1 0.1 0  0.12 0.1 0  0.14 0.1 0  0.16 0.1 0  0.18 0.1 0  0.2 0.1 0  0.22 0.1 0  0.24 0.1 0  0.26 0.1 0  0.28 0.1 0  0.3 0.1 0  0.32 0.1 0  0.34 0.1 0  0.36 0.1 0  0.38 0.1 0  0.4 0.1 0  0.42 0.1 0  0.44 0.1 0  0.46 0.1 0  0.48 0.1 0  0.5 0.1 0  0.52 0.1 0  0.54 0.1 0  0.5600000000000001 0.1 0  0.58 0.1 0  0.6 0.1 0  0.62 0.1 0  0.64 0.1 0  0.66 0.1 0  0.68 0.1 0  0.7 0.1 0  0.72 0.1 0  0.74 0.1 0  0.76 0.1 0  0.78 0.1 0  0.8 0.1 0  0.82 0.1 0  0.84 0.1 0  0.86 0.1 0  0.88 0.1 0  0.9 0.1 0  0.92 0.1 0  0.9399999999999999 0.1 0  0.96 0.1 0  0.98 0.1 0  1 0.1 0  1.02 0.1 0  1.04 0.1 0  1.06 0.1 0  1.08 0.1 0  1.1 0.1 0  1.12 0.1 0  1.14 0.1 0  1.16 0.1 0  1.18 0.1 0  1.2 0.1 0  1.22 0.1 0  1.24 0.1 0  1.26 0.1 0  1.28 0.1 0  1.3 0.1 0  1.32 0.1 0  1.34 0.1 0  1.36 0.1 0  1.38 0.1 0  1.4 0.1 0  1.42 0.1 0  1.44 0.1 0  1.46 0.1 0  1.48 0.1 0  1.5 0.1 0  1.52 0.1 0  1.54 0.1 0  1.56 0.1 0  1.58 0.1 0  1.6 0.1 0  1.62 0.1 0  1.64 0.1 0  1.66 0.1 0  1.68 0.1 0  1.7 0.1 0  1.72 0.1 0  1.74 0.1 0  1.76 0.1 0  1.78 0.1 0  1.8 0.1 0  1.82 0.1 0  1.84 0.1 0  1.86 0.1 0  1.88 0.1 0  1.9 0.1 0  1.92 0.1 0  1.94 0.1 0  1.96 0.1 0  1.98 0.1 0  2 0.1 0  0 0.12 0  0.02 0.12 0  0.04 0.12 0  0.06 0.12 0  0.08 0.12 0  0.1 0.12 0  0.12 0.12 0  0.14 0.12 0  0.16 0.12 0  0.18 0.12 0  0.2 0.12 0  0.22 0.12 0  0.24 0.12 0  0.26 0.12 0  0.28 0.12 0  0.3 0.12 0  0.32 0.12 0  0.34 0.12 0  0.36 0.12 0  0.38 0.12 0  0.4 0.12 0  0.42 0.12 0  0.44 0.12 0  0.46 0.12 0  0.48 0.12 0  0.5 0.12 0  0.52 0.12 0  0.54 0.12 0  0.5600000000000001 0.12 0  0.58 0.12 0  0.6 0.12 0  0.62 0.12 0  0.64 0.12 0  0.66 0.12 0  0.68 0.12 0  0.7 0.12 0  0.72 0.12 0  0.74 0.12 0  0.76 0.12 0  0.78 0.12 0  0.8 0.12 0  0.82 0.12 0  0.84 0.12 0  0.86 0.12 0  0.88 0.12 0  0.9 0.12 0  0.92 0.12 0  0.9399999999999999 0.12 0  0.96 0.12 0  0.98 0.12 0  1 0.12 0  1.02 0.12 0  1.04 0.12 0  1.06 0.12 0  1.08 0.12 0  1.1 0.12 0  1.12 0.12 0  1.14 0.12 0  1.16 0.12 0  1.18 0.12 0  1.2 0.12 0  1.22 0.12 0  1.24 0.12 0  1.26 0.12 0  1.28 0.12 0  1.3 0.12 0  1.32 0.12 0  1.34 0.12 0  1.36 0.12 0  1.38 0.12 0  1.4 0.12 0  1.42 0.12 0  1.44 0.12 0  1.46 0.12 0  1.48 0.12 0  1.5 0.12 0  1.52 0.12 0  1.54 0.12 0  1.56 0.12 0  1.58 0.12 0  1.6 0.12 0  1.62 0.12 0  1.64 0.12 0  1.66 0.12 0  1.68 0.12 0  1.7 0.12 0  1.72 0.12 0  1.74 0.12 0  1.76 0.12 0  1.78 0.12 0  1.8 0.12 0  1.82 0.12 0  1.84 0.12 0  1.86 0.12 0  1.88 0.12 0  1.9 0.12 0  1.92 0.12 0  1.94 0.12 0  1.96 0.12 0  1.98 0.12 0  2 0.12 0  0 0.14 0  0.02 0.14 0  0.04 0.14 0  0.06 0.14 0  0.08 0.14 0  0.1 0.14 0  0.12 0.14 0  0.14 0.14 0  0.16 0.14 0  0.18 0.14 0  0.2 0.14 0  0.22 0.14 0  0.24 0.14 0  0.26 0.14 0  0.28 0.14 0  0.3 0.14 0  0.32 0.14 0  0.34 0.14 0  0.36 0.14 0  0.38 0.14 0  0.4 0.14 0  0.42 0.14 0  0.44 0.14 0  0.46 0.14 0  0.48 0.14 0  0.5 0.14 0  0.52 0.14 0  0.54 0.14 0  0.5600000000000001 0.14 0  0.58 0.14 0  0.6 0.14 0  0.62 0.14 0  0.64 0.14 0  0.66 0.14 0  0.68 0.14 0  0.7 0.14 0  0.72 0.14 0  0.74 0.14 0  0.76 0.14 0  0.78 0.14 0  0.8 0.14 0  0.82 0.14 0  0.84 0.14 0  0.86 0.14 0  0.88 0.14 0  0.9 0.14 0  0.92 0.14 0  0.9399999999999999 0.14 0  0.96 0.14 0  0.98 0.14 0  1 0.14 0  1.02 0.14 0  1.04 0.14 0  1.06 0.14 0  1.08 0.14 0  1.1 0.14 0  1.12 0.14 0  1.14 0.14 0  1.16 0.14 0  1.18 0.14 0  1.2 0.14 0  1.22 0.14 0  1.24 0.14 0  1.26 0.14 0  1.28 0.14 0  1.3 0.14 0  1.32 0.14 0  1.34 0.14 0  1.36 0.14 0  1.38 0.14 0  1.4 0.14 0  1.42 0.14 0  1.44 0.14 0  1.46 0.14 0  1.48 0.14 0  1
[...]
<PointData  Scalars="sols[i]"> 
<DataArray  type="Float64"  Name="sols[i]"  format="ascii">1.7894542206117825e-03  1.1936699787724655e-03  1.1936699787724659e-03  1.1936699787724659e-03  1.1936699787724668e-03  1.1936699787724690e-03  1.1936699787724703e-03  1.1936699787724746e-03  1.1936699787724807e-03  1.1936699787724893e-03  1.1936699787725032e-03  1.1936699787725260e-03  1.1936699787725583e-03  1.1936699787726080e-03  1.1936699787726828e-03  1.1936699787727868e-03  1.1936699787729360e-03  1.1936699787731468e-03  1.1936699787734328e-03  1.1936699787738218e-03  1.1936699787743429e-03  1.1936699787750229e-03  1.1936699787759007e-03  1.1936699787770163e-03  1.1936699787784043e-03  1.1936699787801048e-03  1.1936699787821541e-03  1.1936699787845838e-03  1.1936699787874257e-03  1.1936699787906914e-03  1.1936699787944104e-03  1.1936699787986052e-03  1.1936699788033015e-03  1.1936699788085369e-03  1.1936699788143608e-03  1.1936699788208263e-03  1.1936699788280207e-03  1.1936699788360414e-03  1.1936699788449999e-03  1.1936699788550227e-03  1.1936699788662542e-03  1.1936699788788344e-03  1.1936699788929355e-03  1.1936699789087464e-03  1.1936699789264992e-03  1.1936699789465127e-03  1.1936699789692759e-03  1.1936699789955433e-03  1.1936699790265474e-03  1.1936699790642104e-03  1.1936699791114250e-03  1.1936699791723353e-03  1.1936699792525040e-03  1.1936699793588404e-03  1.1936699794990854e-03  1.1936699796806819e-03  1.1936699799089826e-03  1.1936699801877125e-03  1.1936699805051745e-03  1.1936699808495614e-03  1.1936699811972550e-03  1.1936699815176047e-03  1.1936699817771165e-03  1.1936699819452608e-03  1.1936699820005140e-03  1.1936699819349232e-03  1.1936699817557653e-03  1.1936699814838155e-03  1.1936699811488192e-03  1.1936699807807475e-03  1.1936699804157753e-03  1.1936699800751680e-03  1.1936699797748815e-03  1.1936699795228010e-03  1.1936699793201227e-03  1.1936699791633440e-03  1.1936699790462653e-03  1.1936699789616445e-03  1.1936699789023527e-03  1.1936699788620544e-03  1.1936699788354967e-03  1.1936699788185534e-03  1.1936699788080770e-03  1.1936699788017882e-03  1.1936699787980609e-03  1.1936699787957635e-03  1.1936699787941441e-03  1.1936699787927364e-03  1.1936699787912781e-03  1.1936699787896568e-03  1.1936699787878618e-03  1.1936699787859465e-03  1.1936699787839951e-03  1.1936699787821086e-03  1.1936699787803496e-03  1.1936699787787983e-03  1.1936699787775077e-03  1.1936699787765061e-03  1.1936699787758233e-03  1.1936699787754926e-03  3.5719501126885624e-03  1.1936699787724655e-03  5.9710162243992355e-04  5.9710162243992377e-04  5.9710162243992409e-04  5.9710162243992442e-04  5.9710162243992572e-04  5.9710162243992670e-04  5.9710162243992908e-04  5.9710162243993309e-04  5.9710162243993862e-04  5.9710162243994762e-04  5.9710162243996215e-04  5.9710162243998286e-04  5.9710162244001397e-04  5.9710162244006125e-04  5.9710162244012836e-04  5.9710162244022333e-04  5.9710162244035832e-04  5.9710162244054415e-04  5.9710162244079579e-04  5.9710162244113450e-04  5.9710162244157945e-04  5.9710162244215495e-04  5.9710162244288906e-04  5.9710162244380706e-04  5.9710162244493484e-04  5.9710162244629844e-04  5.9710162244791933e-04  5.9710162244981766e-04  5.9710162245200590e-04  5.9710162245449794e-04  5.9710162245731177e-04  5.9710162246046322e-04  5.9710162246397463e-04  5.9710162246788014e-04  5.9710162247221771e-04  5.9710162247704078e-04  5.9710162248241842e-04  5.9710162248842534e-04  5.9710162249514750e-04  5.9710162250268162e-04  5.9710162251112549e-04  5.9710162252058895e-04  5.9710162253119711e-04  5.9710162254309428e-04  5.9710162255647778e-04  5.9710162257164349e-04  5.9710162258905740e-04  5.9710162260948225e-04  5.9710162263414037e-04  5.9710162266490743e-04  5.9710162270453155e-04  5.9710162275679150e-04  5.9710162282649952e-04  5.9710162291921117e-04  5.9710162304049132e-04  5.9710162319466878e-04  5.9710162338412877e-04  5.9710162360344596e-04  5.9710162384397729e-04  5.9710162408940760e-04  5.9710162431797736e-04  5.9710162450543397e-04  5.9710162462929463e-04  5.9710162467338870e-04  5.9710162463137522e-04  5.9710162450810533e-04  5.9710162431840107e-04  5.9710162408370382e-04  5.9710162382669229e-04  5.9710162357124808e-04  5.9710162333354380e-04  5.9710162312477514e-04  5.9710162295029882e-04  5.9710162281070064e-04  5.9710162270327713e-04  5.9710162262348906e-04  5.9710162256614247e-04  5.9710162252619449e-04  5.9710162249921087e-04  5.9710162248155019e-04  5.9710162247037294e-04  5.9710162246353715e-04  5.9710162245948755e-04  5.9710162245712811e-04  5.9710162245569566e-04  5.9710162245468681e-04  5.9710162245378887e-04  5.9710162245282935e-04  5.9710162245173713e-04  5.9710162245051057e-04  5.9710162244919120e-04  5.9710162244784159e-04  5.9710162244653144e-04  5.9710162244531388e-04  5.9710162244423629e-04  5.9710162244333760e-04  5.9710162244263633e-04  5.9710162244214790e-04  5.9710162244188737e-04  1.1936699787759816e-03  1.1936699787724661e-03  5.9710162243992388e-04  5.9710162243992420e-04  5.9710162243992464e-04  5.9710162243992540e-04  5.9710162243992724e-04  5.9710162243992941e-04  5.9710162243993363e-04  5.9710162243994068e-04  5.9710162243995077e-04  5.9710162243996746e-04  5.9710162243999370e-04  5.9710162244003262e-04  5.9710162244009128e-04  5.9710162244017932e-04  5.9710162244030649e-04  5.9710162244048842e-04  5.9710162244074668e-04  5.9710162244110425e-04  5.9710162244159279e-04  5.9710162244225155e-04  5.9710162244312227e-04  5.9710162244425331e-04  5.9710162244570127e-04  5.9710162244751752e-04  5.9710162244975618e-04  5.9710162245246777e-04  5.9710162245569479e-04  5.9710162245947432e-04  5.9710162246383227e-04  5.9710162246879336e-04  5.9710162247438644e-04  5.9710162248064174e-04  5.9710162248760297e-04  5.9710162249533322e-04  5.9710162250391273e-04  5.9710162251344948e-04  5.9710162252407911e-04  5.9710162253595459e-04  5.9710162254925081e-04  5.9710162256415859e-04  5.9710162258087526e-04  5.9710162259961265e-04  5.9710162262060096e-04  5.9710162264410105e-04  5.9710162267045421e-04  5.9710162270017013e-04  5.9710162273406825e-04  5.9710162277352746e-04  5.9710162282082503e-04  5.9710162287957642e-04  5.9710162295523845e-04  5.9710162305553691e-04  5.9710162319060107e-04  5.9710162337247609e-04  5.9710162361466907e-04  5.9710162392542744e-04  5.9710162430994863e-04  5.9710162476305688e-04  5.9710162526263480e-04  5.9710162577551306e-04  5.9710162625202523e-04  5.9710162663983329e-04  5.9710162688977084e-04  5.9710162696735710e-04  5.9710162686072723e-04  5.9710162658229359e-04  5.9710162616926341e-04  5.9710162566824502e-04  5.9710162513306722e-04  5.9710162460871301e-04  5.9710162412856117e-04  5.9710162371538343e-04  5.9710162337638301e-04  5.9710162311012312e-04  5.9710162290899072e-04  5.9710162276234793e-04  5.9710162265890442e-04  5.9710162258821530e-04  5.9710162254142829e-04  5.9710162251148924e-04  5.9710162249303471e-04  5.9710162248211214e-04  5.9710162247589738e-04  5.9710162247242446e-04  5.9710162247034832e-04  5.9710162246879596e-04  5.9710162246724144e-04  5.9710162246541542e-04  5.9710162246323346e-04  5.9710162246073666e-04  5.9710162245803949e-04  5.9710162245528887e-04  5.9710162245263365e-04  5.9710162245019040e-04  5.9710162244805138e-04  5.9710162244628196e-04  5.9710162244491338e-04  5.9710162244396665e-04  5.9710162244346391e-04  1.1936699787785474e-03  1.1936699787724666e-03  5.9710162243992431e-04  5.9710162243992474e-04  5.9710162243992583e-04  5.9710162243992745e-04  5.9710162243993060e-04  5.9710162243993526e-04  5.9710162243994339e-04  5.9710162243995716e-04  5.9710162243997798e-04  5.9710162244001159e-04  5.9710162244006482e-04  5.9710162244014527e-04  5.9710162244026757e-04  5.9710162244045069e-04  5.9710162244071860e-04  5.9710162244110425e-04  5.9710162244165350e-04  5.9710162244242014e-04  5.9710162244347312e-04  5.9710162244489863e-04  5.9710162244679295e-04  5.9710162244926677e-04  5.9710162245244403e-04  5.9710162245644625e-04  5.9710162246139455e-04  5.9710162246740168e-04  5.9710162247456208e-04  5.9710162248295337e-04  5.9710162249263269e-04  5.9710162250364797e-04  5.9710162251605319e-04  5.9710162252990951e-04  5.9710162254530995e-04  5.9710162256238928e-04  5.9710162258132997e-04  5.9710162260237336e-04  5.9710162262582151e-04  5.9710162265202201e-04  5.9710162268136800e-04  5.9710162271428579e-04  5.9710162275121794e-04  5.9710162279262373e-04  5.9710162283898400e-04  5.9710162289082199e-04  5.9710162294879189e-04  5.9710162301385128e-04  5.9710162308757161e-04  5.9710162317266641e-04  5.9710162327377965e-04  5.9710162339854335e-04  5.9710162355885413e-04  5.9710162377208298e-04  5.9710162406271042e-04  5.9710162445752470e-04  5.9710162498953306e-04  5.9710162568459718e-04  5.9710162655600104e-04  5.9710162759235108e-04  5.9710162874802570e-04  5.9710162993848294e-04  5.9710163105032045e-04  5.9710163195116127e-04  5.9710163252192606e-04  5.9710163267975857e-04  5.9710163239813272e-04  5.9710163171588007e-04  5.9710163072383563e-04  5.9710162954333093e-04  5.9710162829978704e-04  5.9710162710167121e-04  5.9710162602357277e-04  5.9710162511013830e-04  5.9710162437228884e-04  5.9710162380339203e-04  5.9710162338100215e-04  5.9710162307835058e-04  5.9710162286859118e-04  5.9710162272784938e-04  5.9710162263651608e-04  5.9710162257937916e-04  5.9710162254512488e-04  5.9710162252558322e-04  5.9710162251499729e-04  5.9710162250939912e-04  5.9710162250611312e-04  5.9710162250342657e-04  5.9710162250033942e-04  5.9710162249638349e-04  5.9710162249147314e-04  5.9710162248578042e-04  5.9710162247962140e-04  5.9710162247336436e-04  5.9710162246735940e-04  5.9710162246188298e-04  5.9710162245713255e-04  5.9710162245323257e-04  5.9710162245023746e-04  5.9710162244817552e-04  5.9710162244707961e-04  1.1936699787846096e-03  1.1936699787724679e-03  5.9710162243992518e-04  5.9710162243992605e-04  5.9710162243992800e-04  5.9710162243993136e-04  5.9710162243993743e-04  5.9710162243994697e-04  5.9710162243996345e-04  5.9710162243999077e-04  5.9710162244003447e-04  5.9710162244010429e-04  5.9710162244021520e-04  5.9710162244038575e-04  5.9710162244064596e-04  5.9710162244103811e-04  5.9710162244161577e-04  5.9710162244245354e-04  5.9710162244365191e-04  5.9710162244533448e-04  5.9710162244765890e-04  5.9710162245081957e-04  5.9710162245504112e-04  5.9710162246058161e-04  5.9710162246772412e-04  5.9710162247675585e-04  5.9710162248795902e-04  5.9710162250159091e-04  5.9710162251786674e-04  5.9710162253695585e-04  5.9710162255897979e-04  5.9710162258403592e-04  5.9710162261222366e-04  5.9710162264367149e-04  5.9710162267857640e-04  5.9710162271723894e-04  5.9710162276007653e-04  5.9710162280764460e-04  5.9710162286063509e-04  5.9710162291985518e-04  5.9710162298621150e-04  5.9710162306068383e-04  5.9710162314428666e-04  5.9710162323805269e-04  5.9710162334302406e-04  5.9710162346028530e-04  5.9710162359111760e-04  5.9710162373733939e-04  5.9710162390196780e-04  5.9710162409038110e-04  5.9710162431213069e-04  5.9710162458451383e-04  5.9710162493177630e-04  5.9710162539451629e-04  5.9710162602892439e-04  5.9710162690389387e-04  5.9710162809836710e-04  5.9710162968137513e-04  5.9710163169641810e-04  5.9710163412132419e-04  5.9710163685218432e-04  5.9710163968682830e-04  5.9710164233976889e-04  5.9710164448336463e-04  5.9710164581951858e-04  5.9710164614330873e-04  5.9710164539924571e-04  5.9710164369496371e-04  5.9710164126874638e-04  5.9710163842877030e-04  5.9710163548389484e-04  5.9710163268912304e-04  5.9710163021804697e-04  5.9710162815675963e-04  5.9710162652144860e-04  5.9710162527973961e-04  5.9710162437397261e-04  5.9710162373585339e-04  5.9710162330110013e-04  5.9710162301454626e-04  5.9710162283218432e-04  5.9710162272070795e-04  5.9710162265585477e-04  5.9710162262040180e-04  5.9710162260236067e-04  5.9710162259353267e-04  5.9710162258844461e-04  5.9710162258363867e-04  5.9710162257716555e-04  5.9710162256821199e-04  5.9710162255678721e-04  5.9710162254344480e-04  5.9710162252902957e-04  5.9710162251446223e-04  5.9710162250058119e-04  5.9710162248803155e-04  5.9710162247724678e-04  5.9710162246846485e-04  5.9710162246177033e-04  5.9710162245718275e-04  5.9710162245473972e-04  1.1936699787974858e-03  1.1936699787724716e-03  5.9710162243992702e-04  5.9710162243992897e-04  5.9710162243993277e-04  5.9710162243993927e-04  5.9710162243995109e-04  5.9710162243997061e-04  5.9710162244000422e-04  5.9710162244005994e-04  5.9710162244015004e-04  5.9710162244029630e-04  5.9710162244052865e-04  5.9710162244089055e-04  5.9710162244144696e-04  5.9710162244228950e-04  5.9710162244354056e-04  5.9710162244536722e-04  5.9710162244799381e-04  5.9710162245170341e-04  5.9710162245685586e-04  5.9710162246389602e-04  5.9710162247334636e-04  5.9710162248580829e-04  5.9710162250194111e-04  5.9710162252242201e-04  5.9710162254791106e-04  5.9710162257900371e-04  5.9710162261619108e-04  5.9710162265984507e-04  5.9710162271022090e-04  5.9710162276750613e-04  5.9710162283188508e-04  5.9710162290361633e-04  5.9710162298312337e-04  5.9710162307107537e-04  5.9710162316843108e-04  5.9710162327647432e-04  5.9710162339680830e-04  5.9710162353131106e-04  5.9710162368208997e-04  5.9710162385141362e-04  5.9710162404162409e-04  5.9710162425507152e-04  5.9710162449405808e-04  5.9710162476086376e-04  5.9710162505799544e-04  5.9710162538884504e-04  5.9710162575906561e-04  5.9710162618010446e-04  5.9710162666930277e-04  5.9710162726206602e-04  5.9710162801696097e-04  5.9710162902278617e-04  5.9710163040992961e-04  5.9710163234680670e-04  5.9710163503131925e-04  5.9710163864886746e-04  5.9710164332013973e-04  5.9710164901980844e-04  5.9710165550870466e-04  5.9710166229359144e-04  5.9710166866303591e-04  5.9710167379897793e-04  5.9710167694367023e-04  5.9710167759262334e-04  5.9710167562865865e-04  5.9710167135168350e-04  5.9710166538984939e-04  5.9710165853104041e-04  5.9710165153594483e-04  5.9710164501008023e-04  5.9710163933592974e-04  5.9710163468505641e-04  5.9710163105916071e-04  5.9710162835454987e-04  5.9710162641469567e-04  5.9710162507043644e-04  5.9710162417110223e-04  5.9710162358906239e-04  5.9710162322614013e-04  5.9710162300981307e-04  5.9710162288829167e-04  5.9710162282538041e-04  5.9710162279613384e-04  5.9710162278358994e-04  5.9710162277650056e-04  5.9710162276785210e-04  5.9710162275385234e-04  5.9710162273316435e-04  5.9710162270624209e-04  5.9710162267470547e-04  5.9710162264075585e-04  5.9710162260667818e-04  5.9710162257447261e-04  5.9710162254562828e-04  5.9710162252107955e-04  5.9710162250127107e-04  5.9710162248629173e-04  5.9710162247608083e-04  5.9710162247063195e-04  1.1936699788241475e-03  1.1936699787724755e-03  5.9710162243993006e-04  5.9710162243993363e-04  5.9710162243994101e-04  5.9710162243995391e-04  5.9710162243997733e-04  5.9710162244001679e-04  5.9710162244008434e-04  5.9710162244019796e-04  5.9710162244038445e-04  5.9710162244068835e-04  5.9710162244117537e-04  5.9710162244194179e-04  5.9710162244312932e-04  5.9710162244493918e-04  5.9710162244764643e-04  5.9710162245162676e-04  5.9710162245738192e-04  5.9710162246555799e-04  5.9710162247697746e-04  5.9710162249265925e-04  5.9710162251381822e-04  5.9710162254185645e-04  5.9710162257831719e-04  5.9710162262479683e-04  5.9710162268284447e-04  5.9710162275384573e-04  5.9710162283892220e-04  5.9710162293888922e-04  5.9710162305427143e-04  5.9710162318540947e-04  5.9710162333262635e-04  5.9710162349642533e-04  5.9710162367771120e-04  5.9710162387797668e-04  5.9710162409942454e-04  5.9710162434503027e-04  5.9710162461851994e-04  5.9710162492427265e-04  5.9710162526719376e-04  5.9710162565255142e-04  5.9710162608577551e-04  5.9710162657326598e-04  5.9710162711816203e-04  5.9710162772632421e-04  5.9710162840264692e-04  5.9710162915326860e-04  5.9710162998835028e-04  5.9710163092847846e-04  5.9710163200989196e-04  5.9710163330593097e-04  5.9710163494107200e-04  5.9710163711605496e-04  5.9710164013414735e-04  5.9710164440408885e-04  5.9710165041568870e-04  5.9710165866350411e-04  5.9710166949314045e-04  5.9710168290389289e-04  5.9710169835078199e-04  5.9710171463809593e-04  5.9710172998865042e-04  5.9710174233262403e-04  5.9710174975469339e-04  5.9710175099635901e-04  5.9710174581635697e-04  5.9710173505918306e-04  5.9710172038838355e-04  5.9710170381118755e-04  5.9710168720554079e-04  5.9710167198694997e-04  5.9710165899716375e-04  5.9710164854426349e-04  5.9710164054479012e-04  5.9710163468503690e-04  5.9710163055529868e-04  5.9710162774783370e-04  5.9710162590090505e-04  5.9710162472889400e-04  5.9710162401401651e-04  5.9710162359994832e-04  5.9710162337618775e-04  5.9710162326927479e-04  5.9710162322657143e-04  5.9710162321306812e-04  5.9710162320563136e-04  5.9710162319003468e-04  5.9710162315896502e-04  5.9710162311047592e-04  5.9710162304655559e-04  5.9710162297170358e-04  5.9710162289156672e-04  5.9710162281176565e-04  5.9710162273805324e-04  5.9710162267180762e-04  5.9710162261601262e-04  5.9710162257143728e-04  5.9710162253802477e-04  5.9710162251538738e-04  5.9710162250329192e-04  1.1936699788787665e-03  1.1936699787724861e-03  5.9710162243993613e-04  5.9710162243994307e-04  5.9710162243995727e-04  5.9710162243998275e-04  5.9710162244002861e-04  5.9710162244010765e-04  5.9710162244024393e-04  5.9710162244047411e-04  5.9710162244085716e-04  5.9710162244148675e-04  5.9710162244250450e-04  5.9710162244412137e-04  5.9710162244664821e-04  5.9710162245052737e-04  5.9710162245637491e-04  5.9710162246503226e-04  5.9710162247762625e-04  5.9710162249562357e-04  5.9710162252090142e-04  5.9710162255579777e-04  5.9710162260313046e-04  5.9710162266617215e-04  5.9710162274854539e-04  5.9710162285401592e-04  5.9710162298623113e-04  5.9710162314842398e-04  5.9710162334316056e-04  5.9710162357222158e-04  5.9710162383665112e-04  5.9710162413701361e-04  5.9710162447481425e-04  5.9710162484897351e-04  5.9710162526241026e-04  5.9710162571846180e-04  5.9710162622219004e-04  5.9710162678050516e-04  5.9710162740208889e-04  5.9710162809715724e-04  5.9710162887713890e-04  5.9710162975428816e-04  5.9710163074122656e-04  5.9710163185141857e-04  5.9710163309454342e-04  5.9710163448209810e-04  5.9710163602364917e-04  5.9710163773086980e-04  5.9710163961891247e-04  5.9710164172471368e-04  5.9710164412028874e-04  5.9710164695099728e-04  5.9710165048240031e-04  5.9710165516100981e-04  5.9710166168397665e-04  5.9710167103334884e-04  5.9710168443293746e-04  5.9710170317328810e-04  5.9710172824429370e-04  5.9710175980540268e-04  5.9710179664069314e-04  5.9710183583764806e-04  5.9710187294838963e-04  5.9710190271564784e-04  5.9710192026841101e-04  5.9710192245134345e-04  5.9710190880299483e-04  5.9710188169460313e-04  5.9710184554156586e-04  5.9710180547883635e-04  5.9710176610682170e-04  5.9710173072238869e-04  5.9710170110449689e-04  5.9710167773409026e-04  5.9710166019603125e-04  5.9710164759376751e-04  5.9710163888051886e-04  5.9710163306320998e-04  5.9710162931120325e-04  5.9710162697574612e-04  5.9710162558586637e-04  5.9710162480654206e-04  5.9710162441083332e-04  5.9710162424173637e-04  5.9710162419297351e-04  5.9710162419239488e-04  5.9710162419235509e-04  5.9710162416396699e-04  5.9710162409331517e-04  5.9710162397834095e-04  5.9710162382571716e-04  5.9710162364755368e-04  5.9710162345816265e-04  5.9710162327127276e-04  5.9710162309806658e-04  5.9710162294618547e-04  5.9710162281969594e-04  5.9710162272074091e-04  5.9710162264653302e-04  5.9710162259660226e-04  5.9710162256991571e-04  1.1936699789897869e-03  1.1936699787725050e-03  5.9710162243994751e-04  5.9710162243996117e-04  5.9710162243998839e-04  5.9710162244003837e-04  5.9710162244012814e-04  5.9710162244028502e-04  5.9710162244055705e-04  5.9710162244102250e-04  5.9710162244180453e-04  5.9710162244310222e-04  5.9710162244522096e-04  5.9710162244861896e-04  5.9710162245397600e-04  5.9710162246226961e-04  5.9710162247486934e-04  5.9710162249365835e-04  5.9710162252116835e-04  5.9710162256072102e-04  5.9710162261659039e-04  5.9710162269414196e-04  5.97101622799