<?xml version="1.0"?>
<VTKFile type="UnstructuredGrid"  version="0.1"  >
<UnstructuredGrid>
<Piece  NumberOfPoints="5151" NumberOfCells="10000">
<Points>
<DataArray  type="Float64"  NumberOfComponents="3"  format="ascii">0 0 0  0.02 0 0  0.04 0 0  0.06 0 0  0.08 0 0  0.1 0 0  0.12 0 0  0.14 0 0  0.16 0 0  0.18 0 0  0.2 0 0  0.22 0 0  0.24 0 0  0.26 0 0  0.28 0 0  0.3 0 0  0.32 0 0  0.34 0 0  0.36 0 0  0.38 0 0  0.4 0 0  0.42 0 0  0.44 0 0  0.46 0 0  0.48 0 0  0.5 0 0  0.52 0 0  0.54 0 0  0.5600000000000001 0 0  0.58 0 0  0.6 0 0  0.62 0 0  0.64 0 0  0.66 0 0  0.68 0 0  0.7 0 0  0.72 0 0  0.74 0 0  0.76 0 0  0.78 0 0  0.8 0 0  0.82 0 0  0.84 0 0  0.86 0 0  0.88 0 0  0.9 0 0  0.92 0 0  0.9399999999999999 0 0  0.96 0 0  0.98 0 0  1 0 0  1.02 0 0  1.04 0 0  1.06 0 0  1.08 0 0  1.1 0 0  1.12 0 0  1.14 0 0  1.16 0 0  1.18 0 0  1.2 0 0  1.22 0 0  1.24 0 0  1.26 0 0  1.28 0 0  1.3 0 0  1.32 0 0  1.34 0 0  1.36 0 0  1.38 0 0  1.4 0 0  1.42 0 0  1.44 0 0  1.46 0 0  1.48 0 0  1.5 0 0  1.52 0 0  1.54 0 0  1.56 0 0  1.58 0 0  1.6 0 0  1.62 0 0  1.64 0 0  1.66 0 0  1.68 0 0  1.7 0 0  1.72 0 0  1.74 0 0  1.76 0 0  1.78 0 0  1.8 0 0  1.82 0 0  1.84 0 0  1.86 0 0  1.88 0 0  1.9 0 0  1.92 0 0  1.94 0 0  1.96 0 0  1.98 0 0  2 0 0  0 0.02 0  0.02 0.02 0  0.04 0.02 0  0.06 0.02 0  0.08 0.02 0  0.1 0.02 0  0.12 0.02 0  0.14 0.02 0  0.16 0.02 0  0.18 0.02 0  0.2 0.02 0  0.22 0.02 0  0.24 0.02 0  0.26 0.02 0  0.28 0.02 0  0.3 0.02 0  0.32 0.02 0  0.34 0.02 0  0.36 0.02 0  0.38 0.02 0  0.4 0.02 0  0.42 0.02 0  0.44 0.02 0  0.46 0.02 0  0.48 0.02 0  0.5 0.02 0  0.52 0.02 0  0.54 0.02 0  0.5600000000000001 0.02 0  0.58 0.02 0  0.6 0.02 0  0.62 0.02 0  0.64 0.02 0  0.66 0.02 0  0.68 0.02 0  0.7 0.02 0  0.72 0.02 0  0.74 0.02 0  0.76 0.02 0  0.78 0.02 0  0.8 0.02 0  0.82 0.02 0  0.84 0.02 0  0.86 0.02 0  0.88 0.02 0  0.9 0.02 0  0.92 0.02 0  0.9399999999999999 0.02 0  0.96 0.02 0  0.98 0.02 0  1 0.02 0  1.02 0.02 0  1.04 0.02 0  1.06 0.02 0  1.08 0.02 0  1.1 0.02 0  1.12 0.02 0  1.14 0.02 0  1.16 0.02 0  1.18 0.02 0  1.2 0.02 0  1.22 0.02 0  1.24 0.02 0  1.26 0.02 0  1.28 0.02 0  1.3 0.02 0  1.32 0.02 0  1.34 0.02 0  1.36 0.02 0  1.38 0.02 0  1.4 0.02 0  1.42 0.02 0  1.44 0.02 0  1.46 0.02 0  1.48 0.02 0  1.5 0.02 0  1.52 0.02 0  1.54 0.02 0  1.56 0.02 0  1.58 0.02 0  1.6 0.02 0  1.62 0.02 0  1.64 0.02 0  1.66 0.02 0  1.68 0.02 0  1.7 0.02 0  1.72 0.02 0  1.74 0.02 0  1.76 0.02 0  1.78 0.02 0  1.8 0.02 0  1.82 0.02 0  1.84 0.02 0  1.86 0.02 0  1.88 0.02 0  1.9 0.02 0  1.92 0.02 0  1.94 0.02 0  1.96 0.02 0  1.98 0.02 0  2 0.02 0  0 0.04 0  0.02 0.04 0  0.04 0.04 0  0.06 0.04 0  0.08 0.04 0  0.1 0.04 0  0.12 0.04 0  0.14 0.04 0  0.16 0.04 0  0.18 0.04 0  0.2 0.04 0  0.22 0.04 0  0.24 0.04 0  0.26 0.04 0  0.28 0.04 0  0.3 0.04 0  0.32 0.04 0  0.34 0.04 0  0.36 0.04 0  0.38 0.04 0  0.4 0.04 0  0.42 0.04 0  0.44 0.04 0  0.46 0.04 0  0.48 0.04 0  0.5 0.04 0  0.52 0.04 0  0.54 0.04 0  0.5600000000000001 0.04 0  0.58 0.04 0  0.6 0.04 0  0.62 0.04 0  0.64 0.04 0  0.66 0.04 0  0.68 0.04 0  0.7 0.04 0  0.72 0.04 0  0.74 0.04 0  0.76 0.04 0  0.78 0.04 0  0.8 0.04 0  0.82 0.04 0  0.84 0.04 0  0.86 0.04 0  0.88 0.04 0  0.9 0.04 0  0.92 0.04 0  0.9399999999999999 0.04 0  0.96 0.04 0  0.98 0.04 0  1 0.04 0  1.02 0.04 0  1.04 0.04 0  1.06 0.04 0  1.08 0.04 0  1.1 0.04 0  1.12 0.04 0  1.14 0.04 0  1.16 0.04 0  1.18 0.04 0  1.2 0.04 0  1.22 0.04 0  1.24 0.04 0  1.26 0.04 0  1.28 0.04 0  1.3 0.04 0  1.32 0.04 0  1.34 0.04 0  1.36 0.04 0  1.38 0.04 0  1.4 0.04 0  1.42 0.04 0  1.44 0.04 0  1.46 0.04 0  1.48 0.04 0  1.5 0.04 0  1.52 0.04 0  1.54 0.04 0  1.56 0.04 0  1.58 0.04 0  1.6 0.04 0  1.62 0.04 0  1.64 0.04 0  1.66 0.04 0  1.68 0.04 0  1.7 0.04 0  1.72 0.04 0  1.74 0.04 0  1.76 0.04 0  1.78 0.04 0  1.8 0.04 0  1.82 0.04 0  1.84 0.04 0  1.86 0.04 0  1.88 0.04 0  1.9 0.04 0  1.92 0.04 0  1.94 0.04 0  1.96 0.04 0  1.98 0.04 0  2 0.04 0  0 0.06 0  0.02 0.06 0  0.04 0.06 0  0.06 0.06 0  0.08 0.06 0  0.1 0.06 0  0.12 0.06 0  0.14 0.06 0  0.16 0.06 0  0.18 0.06 0  0.2 0.06 0  0.22 0.06 0  0.24 0.06 0  0.26 0.06 0  0.28 0.06 0  0.3 0.06 0  0.32 0.06 0  0.34 0.06 0  0.36 0.06 0  0.38 0.06 0  0.4 0.06 0  0.42 0.06 0  0.44 0.06 0  0.46 0.06 0  0.48 0.06 0  0.5 0.06 0  0.52 0.06 0  0.54 0.06 0  0.5600000000000001 0.06 0  0.58 0.06 0  0.6 0.06 0  0.62 0.06 0  0.64 0.06 0  0.66 0.06 0  0.68 0.06 0  0.7 0.06 0  0.72 0.06 0  0.74 0.06 0  0.76 0.06 0  0.78 0.06 0  0.8 0.06 0  0.82 0.06 0  0.84 0.06 0  0.86 0.06 0  0.88 0.06 0  0.9 0.06 0  0.92 0.06 0  0.9399999999999999 0.06 0  0.96 0.06 0  0.98 0.06 0  1 0.06 0  1.02 0.06 0  1.04 0.06 0  1.06 0.06 0  1.08 0.06 0  1.1 0.06 0  1.12 0.06 0  1.14 0.06 0  1.16 0.06 0  1.18 0.06 0  1.2 0.06 0  1.22 0.06 0  1.24 0.06 0  1.26 0.06 0  1.28 0.06 0  1.3 0.06 0  1.32 0.06 0  1.34 0.06 0  1.36 0.06 0  1.38 0.06 0  1.4 0.06 0  1.42 0.06 0  1.44 0.06 0  1.46 0.06 0  1.48 0.06 0  1.5 0.06 0  1.52 0.06 0  1.54 0.06 0  1.56 0.06 0  1.58 0.06 0  1.6 0.06 0  1.62 0.06 0  1.64 0.06 0  1.66 0.06 0  1.68 0.06 0  1.7 0.06 0  1.72 0.06 0  1.74 0.06 0  1.76 0.06 0  1.78 0.06 0  1.8 0.06 0  1.82 0.06 0  1.84 0.06 0  1.86 0.06 0  1.88 0.06 0  1.9 0.06 0  1.92 0.06 0  1.94 0.06 0  1.96 0.06 0  1.98 0.06 0  2 0.06 0  0 0.08 0  0.02 0.08 0  0.04 0.08 0  0.06 0.08 0  0.08 0.08 0  0.1 0.08 0  0.12 0.08 0  0.14 0.08 0  0.16 0.08 0  0.18 0.08 0  0.2 0.08 0  0.22 0.08 0  0.24 0.08 0  0.26 0.08 0  0.28 0.08 0  0.3 0.08 0  0.32 0.08 0  0.34 0.08 0  0.36 0.08 0  0.38 0.08 0  0.4 0.08 0  0.42 0.08 0  0.44 0.08 0  0.46 0.08 0  0.48 0.08 0  0.5 0.08 0  0.52 0.08 0  0.54 0.08 0  0.5600000000000001 0.08 0  0.58 0.08 0  0.6 0.08 0  0.62 0.08 0  0.64 0.08 0  0.66 0.08 0  0.68 0.08 0  0.7 0.08 0  0.72 0.08 0  0.74 0.08 0  0.76 0.08 0  0.78 0.08 0  0.8 0.08 0  0.82 0.08 0  0.84 0.08 0  0.86 0.08 0  0.88 0.08 0  0.9 0.08 0  0.92 0.08 0  0.9399999999999999 0.08 0  0.96 0.08 0  0.98 0.08 0  1 0.08 0  1.02 0.08 0  1.04 0.08 0  1.06 0.08 0  1.08 0.08 0  1.1 0.08 0  1.12 0.08 0  1.14 0.08 0  1.16 0.08 0  1.18 0.08 0  1.2 0.08 0  1.22 0.08 0  1.24 0.08 0  1.26 0.08 0  1.28 0.08 0  1.3 0.08 0  1.32 0.08 0  1.34 0.08 0  1.36 0.08 0  1.38 0.08 0  1.4 0.08 0  1.42 0.08 0  1.44 0.08 0  1.46 0.08 0  1.48 0.08 0  1.5 0.08 0  1.52 0.08 0  1.54 0.08 0  1.56 0.08 0  1.58 0.08 0  1.6 0.08 0  1.62 0.08 0  1.64 0.08 0  1.66 0.08 0  1.68 0.08 0  1.7 0.08 0  1.72 0.08 0  1.74 0.08 0  1.76 0.08 0  1.78 0.08 0  1.8 0.08 0  1.82 0.08 0  1.84 0.08 0  1.86 0.08 0  1.88 0.08 0  1.9 0.08 0  1.92 0.08 0  1.94 0.08 0  1.96 0.08 0  1.98 0.08 0  2 0.08 0  0 0.1 0  0.02 0.1 0  0.04 0.1 0  0.06 0.1 0  0.08 0.1 0  0.1 0.1 0  0.12 0.1 0  0.14 0.1 0  0.16 0.1 0  0.18 0.1 0  0.2 0.1 0  0.22 0.1 0  0.24 0.1 0  0.26 0.1 0  0.28 0.1 0  0.3 0.1 0  0.32 0.1 0  0.34 0.1 0  0.36 0.1 0  0.38 0.1 0  0.4 0.1 0  0.42 0.1 0  0.44 0.1 0  0.46 0.1 0  0.48 0.1 0  0.5 0.1 0  0.52 0.1 0  0.54 0.1 0  0.5600000000000001 0.1 0  0.58 0.1 0  0.6 0.1 0  0.62 0.1 0  0.64 0.1 0  0.66 0.1 0  0.68 0.1 0  0.7 0.1 0  0.72 0.1 0  0.74 0.1 0  0.76 0.1 0  0.78 0.1 0  0.8 0.1 0  0.82 0.1 0  0.84 0.1 0  0.86 0.1 0  0.88 0.1 0  0.9 0.1 0  0.92 0.1 0  0.9399999999999999 0.1 0  0.96 0.1 0  0.98 0.1 0  1 0.1 0  1.02 0.1 0  1.04 0.1 0  1.06 0.1 0  1.08 0.1 0  1.1 0.1 0  1.12 0.1 0  1.14 0.1 0  1.16 0.1 0  1.18 0.1 0  1.2 0.1 0  1.22 0.1 0  1.24 0.1 0  1.26 0.1 0  1.28 0.1 0  1.3 0.1 0  1.32 0.1 0  1.34 0.1 0  1.36 0.1 0  1.38 0.1 0  1.4 0.1 0  1.42 0.1 0  1.44 0.1 0  1.46 0.1 0  1.48 0.1 0  1.5 0.1 0  1.52 0.1 0  1.54 0.1 0  1.56 0.1 0  1.58 0.1 0  1.6 0.1 0  1.62 0.1 0  1.64 0.1 0  1.66 0.1 0  1.68 0.1 0  1.7 0.1 0  1.72 0.1 0  1.74 0.1 0  1.76 0.1 0  1.78 0.1 0  1.8 0.1 0  1.82 0.1 0  1.84 0.1 0  1.86 0.1 0  1.88 0.1 0  1.9 0.1 0  1.92 0.1 0  1.94 0.1 0  1.96 0.1 0  1.98 0.1 0  2 0.1 0  0 0.12 0  0.02 0.12 0  0.04 0.12 0  0.06 0.12 0  0.08 0.12 0  0.1 0.12 0  0.12 0.12 0  0.14 0.12 0  0.16 0.12 0  0.18 0.12 0  0.2 0.12 0  0.22 0.12 0  0.24 0.12 0  0.26 0.12 0  0.28 0.12 0  0.3 0.12 0  0.32 0.12 0  0.34 0.12 0  0.36 0.12 0  0.38 0.12 0  0.4 0.12 0  0.42 0.12 0  0.44 0.12 0  0.46 0.12 0  0.48 0.12 0  0.5 0.12 0  0.52 0.12 0  0.54 0.12 0  0.5600000000000001 0.12 0  0.58 0.12 0  0.6 0.12 0  0.62 0.12 0  0.64 0.12 0  0.66 0.12 0  0.68 0.12 0  0.7 0.12 0  0.72 0.12 0  0.74 0.12 0  0.76 0.12 0  0.78 0.12 0  0.8 0.12 0  0.82 0.12 0  0.84 0.12 0  0.86 0.12 0  0.88 0.12 0  0.9 0.12 0  0.92 0.12 0  0.9399999999999999 0.12 0  0.96 0.12 0  0.98 0.12 0  1 0.12 0  1.02 0.12 0  1.04 0.12 0  1.06 0.12 0  1.08 0.12 0  1.1 0.12 0  1.12 0.12 0  1.14 0.12 0  1.16 0.12 0  1.18 0.12 0  1.2 0.12 0  1.22 0.12 0  1.24 0.12 0  1.26 0.12 0  1.28 0.12 0  1.3 0.12 0  1.32 0.12 0  1.34 0.12 0  1.36 0.12 0  1.38 0.12 0  1.4 0.12 0  1.42 0.12 0  1.44 0.12 0  1.46 0.12 0  1.48 0.12 0  1.5 0.12 0  1.52 0.12 0  1.54 0.12 0  1.56 0.12 0  1.58 0.12 0  1.6 0.12 0  1.62 0.12 0  1.64 0.12 0  1.66 0.12 0  1.68 0.12 0  1.7 0.12 0  1.72 0.12 0  1.74 0.12 0  1.76 0.12 0  1.78 0.12 0  1.8 0.12 0  1.82 0.12 0  1.84 0.12 0  1.86 0.12 0  1.88 0.12 0  1.9 0.12 0  1.92 0.12 0  1.94 0.12 0  1.96 0.12 0  1.98 0.12 0  2 0.12 0  0 0.14 0  0.02 0.14 0  0.04 0.14 0  0.06 0.14 0  0.08 0.14 0  0.1 0.14 0  0.12 0.14 0  0.14 0.14 0  0.16 0.14 0  0.18 0.14 0  0.2 0.14 0  0.22 0.14 0  0.24 0.14 0  0.26 0.14 0  0.28 0.14 0  0.3 0.14 0  0.32 0.14 0  0.34 0.14 0  0.36 0.14 0  0.38 0.14 0  0.4 0.14 0  0.42 0.14 0  0.44 0.14 0  0.46 0.14 0  0.48 0.14 0  0.5 0.14 0  0.52 0.14 0  0.54 0.14 0  0.5600000000000001 0.14 0  0.58 0.14 0  0.6 0.14 0  0.62 0.14 0  0.64 0.14 0  0.66 0.14 0  0.68 0.14 0  0.7 0.14 0  0.72 0.14 0  0.74 0.14 0  0.76 0.14 0  0.78 0.14 0  0.8 0.14 0  0.82 0.14 0  0.84 0.14 0  0.86 0.14 0  0.88 0.14 0  0.9 0.14 0  0.92 0.14 0  0.9399999999999999 0.14 0  0.96 0.14 0  0.98 0.14 0  1 0.14 0  1.02 0.14 0  1.04 0.14 0  1.06 0.14 0  1.08 0.14 0  1.1 0.14 0  1.12 0.14 0  1.14 0.14 0  1.16 0.14 0  1.18 0.14 0  1.2 0.14 0  1.22 0.14 0  1.24 0.14 0  1.26 0.14 0  1.28 0.14 0  1.3 0.14 0  1.32 0.14 0  1.34 0.14 0  1.36 0.14 0  1.38 0.14 0  1.4 0.14 0  1.42 0.14 0  1.44 0.14 0  1.46 0.14 0  1.48 0.14 0  1
[...]
<PointData  Scalars="sols[i]"> 
<DataArray  type="Float64"  Name="sols[i]"  format="ascii">8.3263590201233893e-04  5.5524711830634088e-04  5.5524711842420277e-04  5.5524711866557555e-04  5.5524711912891705e-04  5.5524711999570459e-04  5.5524712159284347e-04  5.5524712449947066e-04  5.5524712972705487e-04  5.5524713901911841e-04  5.5524715534520559e-04  5.5524718371137763e-04  5.5524723249347654e-04  5.5524731565381356e-04  5.5524745649310908e-04  5.5524769413755801e-04  5.5524809496281695e-04  5.5524877288796451e-04  5.5524992521246313e-04  5.5525189444590784e-04  5.5525527059445542e-04  5.5526105000567162e-04  5.5527086052926207e-04  5.5528723943564710e-04  5.5531390044468994e-04  5.5535584732207318e-04  5.5541910566012586e-04  5.5550981528411055e-04  5.5563255663470873e-04  5.5578815356156807e-04  5.5597169980221069e-04  5.5617178336372637e-04  5.5637156459971773e-04  5.5655173278884704e-04  5.5669446842112268e-04  5.5678678875704588e-04  5.5682202979233364e-04  5.5679968762746340e-04  5.5672484346638016e-04  5.5660748804967335e-04  5.5646105114767741e-04  5.5630008533733889e-04  5.5613784557163024e-04  5.5598458994911932e-04  5.5584692164865727e-04  5.5572803386865898e-04  5.5562847464273295e-04  5.5554705101956800e-04  5.5548163160084034e-04  5.5542974513539010e-04  5.5538896327433094e-04  5.5535710483904123e-04  5.5533231596800639e-04  5.5531307593428456e-04  5.5529816541471651e-04  5.5528662072811105e-04  5.5527768695419043e-04  5.5527077580747660e-04  5.5526543023321927e-04  5.5526129575336433e-04  5.5525809775373077e-04  5.5525562367465017e-04  5.5525370911516851e-04  5.5525222700788146e-04  5.5525107919070541e-04  5.5525018985171863e-04  5.5524950044004873e-04  5.5524896572440154e-04  5.5524855074826432e-04  5.5524822848303105e-04  5.5524797802209368e-04  5.5524778319238912e-04  5.5524763148690631e-04  5.5524751324277524e-04  5.5524742100615629e-04  5.5524734903826176e-04  5.5524729292750260e-04  5.5524724928191513e-04  5.5524721548395710e-04  5.5524718949620760e-04  5.5524716971087982e-04  5.5524715483800031e-04  5.5524714382688696e-04  5.5524713581434732e-04  5.5524713009177311e-04  5.5524712608361049e-04  5.5524712333107596e-04  5.5524712147726220e-04  5.5524712025202289e-04  5.5524711945662193e-04  5.5524711894890967e-04  5.5524711862990357e-04  5.5524711843238600e-04  5.5524711831175517e-04  5.5524711823901876e-04  5.5524711819571464e-04  5.5524711817029368e-04  5.5524711815567505e-04  5.5524711814765033e-04  5.5524711814388967e-04  1.6638037050218195e-03  5.5524711829445543e-04  2.7769738167172323e-04  2.7769738173493797e-04  2.7769738186759455e-04  2.7769738212502361e-04  2.7769738261061776e-04  2.7769738351232566e-04  2.7769738516579442e-04  2.7769738816154477e-04  2.7769739352401338e-04  2.7769740300682727e-04  2.7769741957566488e-04  2.7769744819646376e-04  2.7769749713119426e-04  2.7769758010419827e-04  2.7769772001326524e-04  2.7769795545278675e-04  2.7769835239720722e-04  2.7769902522016115e-04  2.7770017397812198e-04  2.7770214830685264e-04  2.7770555094405589e-04  2.7771139216816137e-04  2.7772129363228958e-04  2.7773770730130326e-04  2.7776405674264547e-04  2.7780463360979900e-04  2.7786403467177495e-04  2.7794599007084723e-04  2.7805170329387336e-04  2.7817826002461357e-04  2.7831789112503903e-04  2.7845862797385996e-04  2.7858645601968170e-04  2.7868836519328070e-04  2.7875494829177197e-04  2.7878143041340221e-04  2.7876734572049425e-04  2.7871609743375115e-04  2.7863466338720426e-04  2.7853262664771669e-04  2.7842044520897118e-04  2.7830760754077522e-04  2.7820137198902758e-04  2.7810631431611981e-04  2.7802455380703515e-04  2.7795634641598617e-04  2.7790075323165314e-04  2.7785621529180591e-04  2.7782097155689312e-04  2.7779331856021751e-04  2.7777174311399824e-04  2.7775496960519448e-04  2.7774195795002808e-04  2.7773187778536179e-04  2.7772407475978444e-04  2.7771803725675008e-04  2.7771336706692467e-04  2.7770975502636685e-04  2.7770696144927719e-04  2.7770480069092755e-04  2.7770312907671895e-04  2.7770183549775468e-04  2.7770083408812558e-04  2.7770005852346291e-04  2.7769945758628257e-04  2.7769899172334483e-04  2.7769863037999207e-04  2.7769834994171818e-04  2.7769813214825067e-04  2.7769796287366186e-04  2.7769783118884804e-04  2.7769772864099523e-04  2.7769764869906401e-04  2.7769758632548738e-04  2.7769753764307793e-04  2.7769749967327946e-04  2.7769747012811524e-04  2.7769744724370679e-04  2.7769742964781600e-04  2.7769741625700741e-04  2.7769740620036494e-04  2.7769739876639136e-04  2.7769739336857825e-04  2.7769738952412284e-04  2.7769738684029562e-04  2.7769738500408204e-04  2.7769738377238207e-04  2.7769738296174384e-04  2.7769738243775045e-04  2.7769738210471054e-04  2.7769738189633241e-04  2.7769738176783613e-04  2.7769738168966385e-04  2.7769738164270456e-04  2.7769738161484067e-04  2.7769738159852858e-04  2.7769738158915630e-04  2.7769738158398114e-04  2.7769738158145771e-04  5.5524711814383849e-04  5.5524711837233291e-04  2.7769738171684225e-04  2.7769738181334812e-04  2.7769738201784252e-04  2.7769738241894193e-04  2.7769738318452684e-04  2.7769738462369019e-04  2.7769738729533521e-04  2.7769739219433965e-04  2.7769740106460880e-04  2.7769741691637326e-04  2.7769744486857973e-04  2.7769749350821241e-04  2.7769757708381659e-04  2.7769771909135393e-04  2.7769795829818368e-04  2.7769835924681589e-04  2.7769903124982024e-04  2.7770016353772836e-04  2.7770209034971231e-04  2.7770540860074124e-04  2.7771118039449224e-04  2.7772125610664341e-04  2.7773873554263502e-04  2.7776851998565448e-04  2.7781777195676454e-04  2.7789589642789367e-04  2.7801347352147975e-04  2.7817963767568947e-04  2.7839804359057512e-04  2.7866285568027013e-04  2.7895685829834165e-04  2.7925293913175892e-04  2.7951938114219966e-04  2.7972759657534269e-04  2.7985837872545233e-04  2.7990338027397596e-04  2.7986297668329275e-04  2.7974518100005026e-04  2.7956588373813384e-04  2.7934675805631106e-04  2.7911089079299541e-04  2.7887833608141642e-04  2.7866351426740173e-04  2.7847465885397232e-04  2.7831477126009690e-04  2.7818320346824067e-04  2.7807718816335615e-04  2.7799302849310461e-04  2.7792689374808488e-04  2.7787526461223118e-04  2.7783512289856105e-04  2.7780398713178562e-04  2.7777986962819365e-04  2.7776120266287906e-04  2.7774676062750732e-04  2.7773559009729360e-04  2.7772695125247442e-04  2.7772027070190828e-04  2.7771510434452498e-04  2.7771110841235883e-04  2.7770801697381059e-04  2.7770562446256456e-04  2.7770377208346782e-04  2.7770233722624097e-04  2.7770122523285091e-04  2.7770036301091958e-04  2.7769969409433058e-04  2.7769917483463257e-04  2.7769877147072627e-04  2.7769845787731446e-04  2.7769821383600402e-04  2.7769802370741759e-04  2.7769787540966385e-04  2.7769775962921579e-04  2.7769766920624872e-04  2.7769759864963354e-04  2.7769754374867839e-04  2.7769750125981353e-04  2.7769746865584274e-04  2.7769744393165178e-04  2.7769742546231830e-04  2.7769741190774590e-04  2.7769740215433705e-04  2.7769739528149214e-04  2.7769739054089252e-04  2.7769738733948073e-04  2.7769738522121607e-04  2.7769738384646918e-04  2.7769738297021200e-04  2.7769738242092103e-04  2.7769738208182666e-04  2.7769738187541869e-04  2.7769738175140055e-04  2.7769738167778468e-04  2.7769738163460031e-04  2.7769738160959281e-04  2.7769738159537214e-04  2.7769738158759538e-04  2.7769738158384301e-04  5.5524711814736530e-04  5.5524711851653754e-04  2.7769738180268385e-04  2.7769738196402674e-04  2.7769738230910108e-04  2.7769738299405344e-04  2.7769738431851536e-04  2.7769738684187698e-04  2.7769739158985753e-04  2.7769740041309887e-04  2.7769741659635001e-04  2.7769744587142402e-04  2.7769749806736760e-04  2.7769758975264595e-04  2.7769774842396428e-04  2.7769801917053381e-04  2.7769847552621736e-04  2.7769923794331610e-04  2.7770050704505251e-04  2.7770262640584181e-04  2.7770620373369426e-04  2.7771234240729582e-04  2.7772306601417873e-04  2.7774204404289166e-04  2.7777571104735133e-04  2.7783474545066433e-04  2.7793554810760584e-04  2.7810079032125439e-04  2.7835743447285094e-04  2.7873046684559743e-04  2.7923209723181171e-04  2.7985045262642961e-04  2.8054400837584941e-04  2.8124466302038880e-04  2.8187161947245223e-04  2.8235349785506305e-04  2.8264595744956179e-04  2.8273335127621896e-04  2.8261887587221590e-04  2.8232214829208803e-04  2.8188338416522402e-04  2.8135784293514658e-04  2.8080297893393063e-04  2.8026629673698111e-04  2.7977964954527279e-04  2.7935909856018147e-04  2.7900841111443419e-04  2.7872354381315475e-04  2.7849641992580852e-04  2.7831760051311979e-04  2.7817793354584854e-04  2.7806936571715245e-04  2.7798519493775194e-04  2.7792002731892221e-04  2.7786960644489770e-04  2.7783060811348710e-04  2.7780044959409094e-04  2.7777712946862830e-04  2.7775909821145241e-04  2.7774515632844821e-04  2.7773437543542512e-04  2.7772603722658927e-04  2.7771958626161228e-04  2.7771459337762815e-04  2.7771072721126492e-04  2.7770773200751144e-04  2.7770541036884291e-04  2.7770360988465674e-04  2.7770221280451739e-04  2.7770112808864255e-04  2.7770028529978252e-04  2.7769962991440889e-04  2.7769911972505220e-04  2.7769872207876066e-04  2.7769841175373581e-04  2.7769816931931811e-04  2.7769797985695630e-04  2.7769783194671148e-04  2.7769771684954840e-04  2.7769762784105132e-04  2.7769755967443108e-04  2.7769750816511115e-04  2.7769746989252456e-04  2.7769744200782290e-04  2.7769742212480959e-04  2.7769740826357050e-04  2.7769739881714802e-04  2.7769739252020073e-04  2.7769738840994313e-04  2.7769738577903804e-04  2.7769738412507884e-04  2.7769738310221551e-04  2.7769738247901085e-04  2.7769738210443699e-04  2.7769738188209933e-04  2.7769738175165723e-04  2.7769738167599391e-04  2.7769738163264642e-04  2.7769738160824423e-04  2.7769738159501994e-04  2.7769738158868983e-04  5.5524711815483035e-04  5.5524711876297388e-04  2.7769738195132439e-04  2.7769738222770455e-04  2.7769738282459937e-04  2.7769738402347272e-04  2.7769738637161735e-04  2.7769739090538188e-04  2.7769739955281735e-04  2.7769741584309545e-04  2.7769744612800404e-04  2.7769750163502370e-04  2.7769760183248460e-04  2.7769777981085557e-04  2.7769809071046453e-04  2.7769862478182913e-04  2.7769952782650420e-04  2.7770103451936891e-04  2.7770352672516719e-04  2.7770764393804582e-04  2.7771450407349288e-04  2.7772614988238580e-04  2.7774642454818160e-04  2.7778258149360307e-04  2.7784797084808065e-04  2.7796593965473821e-04  2.7817435204665643e-04  2.7852861875912803e-04  2.7909891368372154e-04  2.7995566500832388e-04  2.8114010927693666e-04  2.8263130840810888e-04  2.8432902470217053e-04  2.8605724692326747e-04  2.8759947665751384e-04  2.8876589791141462e-04  2.8944875562050967e-04  2.8962143826131921e-04  2.8929572821483155e-04  2.8851873697771391e-04  2.8739889123626585e-04  2.8608645732485714e-04  2.8473180619698432e-04  2.8345071375499177e-04  2.8231368835757387e-04  2.8134981015266573e-04  2.8055914682341985e-04  2.7992553300246491e-04  2.7942576207804198e-04  2.7903544378355820e-04  2.7873232343586160e-04  2.7849760785637624e-04  2.7831609284764924e-04  2.7817577988633289e-04  2.7806732689920064e-04  2.7798349806854624e-04  2.7791869939240103e-04  2.7786860971136128e-04  2.7782988965381194e-04  2.7779995668611240e-04  2.7777681330059731e-04  2.7775891481030446e-04  2.7774506737202151e-04  2.7773434911322056e-04  2.7772604866156041e-04  2.7771961720931242e-04  2.7771463129344653e-04  2.7771076398639321e-04  2.7770776268357420e-04  2.7770543203876826e-04  2.7770362086942691e-04  2.7770221211267042e-04  2.7770111512400477e-04  2.7770025976913353e-04  2.7769959188382826e-04  2.7769906976903025e-04  2.7769866145472004e-04  2.7769834252190591e-04  2.7769809432933395e-04  2.7769790255213349e-04  2.7769775599440947e-04  2.7769764567257539e-04  2.7769756417095185e-04  2.7769750524759477e-04  2.7769746363324332e-04  2.7769743494393128e-04  2.7769741563210120e-04  2.7769740292679304e-04  2.7769739474479353e-04  2.7769738957801637e-04  2.7769738637269402e-04  2.7769738441571593e-04  2.7769738323796706e-04  2.7769738253835736e-04  2.7769738212772051e-04  2.7769738188938484e-04  2.7769738175256243e-04  2.7769738167495155e-04  2.7769738163166820e-04  2.7769738160840507e-04  2.7769738159733840e-04  5.5524711816823283e-04  5.5524711916756300e-04  2.7769738219789950e-04  2.7769738267035903e-04  2.7769738370097608e-04  2.7769738579542749e-04  2.7769738995046844e-04  2.7769739808130743e-04  2.7769741380550606e-04  2.7769744384777205e-04  2.7769750049902285e-04  2.7769760581219097e-04  2.7769779856227092e-04  2.7769814544571179e-04  2.7769875855405870e-04  2.7769982192403438e-04  2.7770163140549331e-04  2.7770465578445699e-04  2.7770963740664164e-04  2.7771777758543796e-04  2.7773111576208777e-04  2.7775334347464802e-04  2.7779152882673994e-04  2.7785956010888021e-04  2.7798440928656699e-04  2.7821614613684521e-04  2.7864120932486174e-04  2.7939479439597243e-04  2.8066160382318012e-04  2.8264630679421411e-04  2.8549391267715141e-04  2.8919094770846605e-04  2.9350971507812959e-04  2.9798835130509776e-04  3.0200636416743564e-04  3.0500516469948442e-04  3.0669361062048367e-04  3.0703908950752547e-04  3.0607332464977757e-04  3.0390639688598458e-04  3.0086924594875886e-04  2.9741442325136096e-04  2.9396228198592012e-04  2.9079892461186113e-04  2.8807202555702834e-04  2.8581788974198127e-04  2.8400668834565549e-04  2.8257909344092728e-04  2.8146736786637460e-04  2.8060713995036384e-04  2.7994336337640497e-04  2.7943160031457129e-04  2.7903695975221149e-04  2.7873246920828042e-04  2.7849742196560818e-04  2.7831591139097203e-04  2.7817570192171083e-04  2.7806737721456319e-04  2.7798367672747114e-04  2.7791899274610222e-04  2.7786899283844749e-04  2.7783032989124368e-04  2.7780041925415627e-04  2.7777726703231368e-04  2.7775933595000282e-04  2.7774544074767098e-04  2.7773466721458379e-04  2.7772630963870053e-04  2.7771982269221280e-04  2.7771478457003712e-04  2.7771086873943664e-04  2.7770782228542771e-04  2.7770544932038065e-04  2.7770359826338140e-04  2.7770215207276324e-04  2.7770102071372483e-04  2.7770013527461017e-04  2.7769944325911307e-04  2.7769890471090639e-04  2.7769848897572829e-04  2.7769817204478266e-04  2.7769793450957946e-04  2.7769776016190481e-04  2.7769763519662824e-04  2.7769754786823036e-04  2.7769748838920601e-04  2.7769744887770994e-04  2.7769742323987759e-04  2.7769740695855722e-04  2.7769739681747605e-04  2.7769739060898708e-04  2.7769738686589640e-04  2.7769738463988427e-04  2.7769738333237299e-04  2.7769738257308181e-04  2.7769738213687161e-04  2.7769738188891511e-04  2.7769738174959838e-04  2.7769738167260100e-04  2.7769738163154796e-04  2.7769738161212648e-04  5.5524711819112630e-04  5.5524711981418411e-04  2.7769738259584648e-04  2.7769738339387837e-04  2.7769738515247646e-04  2.7769738876877914e-04  2.7769739603612136e-04  2.7769741045272214e-04  2.7769743873206948e-04  2.7769749356111226e-04  2.7769759852191452e-04  2.7769779664919066e-04  2.7769816487495066e-04  2.7769883759608130e-04  2.7770004368549270e-04  2.7770216229918717e-04  2.7770580398661963e-04  2.7771192674085456e-04  2.7772200883622271e-04  2.7773834174084160e-04  2.7776462377720882e-04  2.7780731779926361e-04  2.7787881482570372e-04  2.7800442149025556e-04  2.7823640059490210e-04  2.7867888007389172e-04  2.7952547299047484e-04  2.8110437017206874e-04  2.8390925342716261e-04  2.8856554030418379e-04  2.9563063593202792e-04  3.0529710806232808e-04  3.1719862726372456e-04  3.3014857491421942e-04  3.4212310019093606e-04  3.5107232441992985e-04  3.5593888836590886e-04  3.5672140407275031e-04  3.5345483145632464e-04  3.4638718895731613e-04  3.3685979417319710e-04  3.2658325192872970e-04  3.1689538879990366e-04  3.0848410474589938e-04  3.0157205392671499e-04  2.9607920864069254e-04  2.9180068000577808e-04  2.8850904314239515e-04  2.8599224420304087e-04  2.8407007946605541e-04  2.8260028814353332e-04  2.8147427285334184e-04  2.8060978600119232e-04  2.7994485836619780e-04  2.7943278066064477e-04  2.7903804738784149e-04  2.7873354645725323e-04  2.7849854555889110e-04  2.7831712255195018e-04  2.7817701193437520e-04  2.7806876177175692e-04  2.7798508429389778e-04  2.7792036119091336e-04  2.7787026593741136e-04  2.7783146753365109e-04  2.7780140007938416e-04  2.7777808567494008e-04  2.7775999792903198e-04  2.7774595733080749e-04  2.7773505143314099e-04  2.7772657374481295e-04  2.7771997692003006e-04  2.7771483694158860e-04  2.7771082567418118e-04  2.7770768981290295e-04  2.7770523468168760e-04  2.7770331157915464e-04  2.7770180759354986e-04  2.7770063710390238e-04  2.7769973455778841e-04  2.7769904847609625e-04  2.7769853685445564e-04  2.7769816412089585e-04  2.7769789957149459e-04  2.7769771688091344e-04  2.7769759411112876e-04  2.7769751372185833e-04  2.7769746232464009e-04  2.7769743015897716e-04  2.7769741040467729e-04  2.7769739847107480e-04  2.7769739136551555e-04  2.7769738718875955e-04  2.7769738476207673e-04  2.7769738336738919e-04  2.7769738257408410e-04  2.7769738212748643e-04  2.7769738187891611e-04  2.7769738174277192e-04  2.7769738167076610e-04  2.7769738163688803e-04  5.5524711822934291e-04  5.5524712082409219e-04  2.7769738322341679e-04  2.7769738454977487e-04  2.7769738750279632e-04  2.7769739364790944e-04  2.7769740615947772e-04  2.7769743132663764e-04  2.7769748142005869e-04  2.7769758003465576e-04  2.7769777182866574e-04  2.7769813983457149e-04  2.7769883533135481e-04  2.7770012761053832e-04  2.7770248346741059e-04  2.7770668796598329e-04  2.7771401762081066e-04  2.7772647468598638e-04  2.7774709485113623e-04  2.7778038412339210e-04  2.7783312136546911e-04  2.7791630443192521e-04  2.7805033024862164e-04  2.7827811421646075e-04  2.7869494410591916e-04  2.7950809035831548e-04  2.8113969639909911e-04  2.8438059115739911e-04  2.9058134891875992e-04  3.0181504980280325e-04  3.2058148403966307e-04  3.4913072392268321e-04  3.8905887064709577e-04  4.3921755796901414e-04  4.9199324101348513e-04  5.3449273374321508e-04  5.5772936083854695e-04  5.6120359992605146e-04  5.4407753822000222e-04  5.0721907867500048e-04  4.6157048565292972e-04  4.1847182235487751e-04  3.8322757873088611e-04  3.5613321953798758e-04  3.3598158966994325e-04  3.2115669165870808e-04  3.1025876000055061e-04  3.0223332562275554e-04  2.9629241374382216e-04  2.9185770349385380e-04  2.8852130478705966e-04  2.8599540963201916e-04  2.8407283241306422e-04  2.8260347050272340e-04  2.8147749319523403e-04  2.8061286510265647e-04  2.7994782421318404e-04  2.7943575995858160e-04  2.7904116644426440e-04  2.7873685162775727e-04  2.7850198370071941e-04  2.7832056797463339e-04  2.7818031475359661e-04  2.7807179238072371e-04  2.7798775745977832e-04  2.7792263906017289e-04  2.7787214808934637e-04  2.7783297676671682e-04  2.7780256963114678e-04  2.7777895012598782e-04  2.7776058786891121e-04  2.7774629708937729e-04  2.7773515912432904e-04  2.7772646305672247e-04  2.7771966026163991e-04  2.7771432955426921e-04  2.7771015000433558e-04  2.7770687890683562e-04  2.7770433308581905e-04  2.7770237267113544e-04  2.7770088744167042e-04  2.7769978639805270e-04  2.7769899116105411e-04  2.7769843306226546e-04  2.7769805279858148e-04  2.7769780104961903e-04  2.7769763877665205e-04  2.7769753665222421e-04  2.7769747370984753e-04  2.7769743560692573e-04  2.7769741289374814e-04  2.7769739953463273e-04  2.7769739177042283e-04  2.7769738730702514e-04  2.7769738476756387e-04  2.7769738333719980e-04  2.7769738253969516e-04  2.7769738210001936e-04  2.7769738186141568e-04  2.7769738173626465e-04  2.7769738167771719e-04  5.5524711829211507e-04  5.5524712236615847e-04  2.7769738419102522e-04  2.7769738635519375e-04  2.7769739122343389e-04  2.7769740147565197e-04  2.7769742262557861e-04  2.7769746577155482e-04  2.7769755293828271e-04  2.7769772724753117e-04  2.7769807188822210e-04  2.7769874466880231e-04  2.7770003919595543e-04  2.7770248953668463e-04  2.7770704180659283e-04  2.7771532074952199e-04  2.7773001615538049e-04  2.7775539461307304e-04  2.7779790504124153e-04  2.7786683052573514e-04  2.7797511383665600e-04  2.7814134197666620e-04  2.78396534346