<?xml version="1.0"?>
<VTKFile type="UnstructuredGrid"  version="0.1"  >
<UnstructuredGrid>
<Piece  NumberOfPoints="5151" NumberOfCells="10000">
<Points>
<DataArray  type="Float64"  NumberOfComponents="3"  format="ascii">0 0 0  0.02 0 0  0.04 0 0  0.06 0 0  0.08 0 0  0.1 0 0  0.12 0 0  0.14 0 0  0.16 0 0  0.18 0 0  0.2 0 0  0.22 0 0  0.24 0 0  0.26 0 0  0.28 0 0  0.3 0 0  0.32 0 0  0.34 0 0  0.36 0 0  0.38 0 0  0.4 0 0  0.42 0 0  0.44 0 0  0.46 0 0  0.48 0 0  0.5 0 0  0.52 0 0  0.54 0 0  0.5600000000000001 0 0  0.58 0 0  0.6 0 0  0.62 0 0  0.64 0 0  0.66 0 0  0.68 0 0  0.7 0 0  0.72 0 0  0.74 0 0  0.76 0 0  0.78 0 0  0.8 0 0  0.82 0 0  0.84 0 0  0.86 0 0  0.88 0 0  0.9 0 0  0.92 0 0  0.9399999999999999 0 0  0.96 0 0  0.98 0 0  1 0 0  1.02 0 0  1.04 0 0  1.06 0 0  1.08 0 0  1.1 0 0  1.12 0 0  1.14 0 0  1.16 0 0  1.18 0 0  1.2 0 0  1.22 0 0  1.24 0 0  1.26 0 0  1.28 0 0  1.3 0 0  1.32 0 0  1.34 0 0  1.36 0 0  1.38 0 0  1.4 0 0  1.42 0 0  1.44 0 0  1.46 0 0  1.48 0 0  1.5 0 0  1.52 0 0  1.54 0 0  1.56 0 0  1.58 0 0  1.6 0 0  1.62 0 0  1.64 0 0  1.66 0 0  1.68 0 0  1.7 0 0  1.72 0 0  1.74 0 0  1.76 0 0  1.78 0 0  1.8 0 0  1.82 0 0  1.84 0 0  1.86 0 0  1.88 0 0  1.9 0 0  1.92 0 0  1.94 0 0  1.96 0 0  1.98 0 0  2 0 0  0 0.02 0  0.02 0.02 0  0.04 0.02 0  0.06 0.02 0  0.08 0.02 0  0.1 0.02 0  0.12 0.02 0  0.14 0.02 0  0.16 0.02 0  0.18 0.02 0  0.2 0.02 0  0.22 0.02 0  0.24 0.02 0  0.26 0.02 0  0.28 0.02 0  0.3 0.02 0  0.32 0.02 0  0.34 0.02 0  0.36 0.02 0  0.38 0.02 0  0.4 0.02 0  0.42 0.02 0  0.44 0.02 0  0.46 0.02 0  0.48 0.02 0  0.5 0.02 0  0.52 0.02 0  0.54 0.02 0  0.5600000000000001 0.02 0  0.58 0.02 0  0.6 0.02 0  0.62 0.02 0  0.64 0.02 0  0.66 0.02 0  0.68 0.02 0  0.7 0.02 0  0.72 0.02 0  0.74 0.02 0  0.76 0.02 0  0.78 0.02 0  0.8 0.02 0  0.82 0.02 0  0.84 0.02 0  0.86 0.02 0  0.88 0.02 0  0.9 0.02 0  0.92 0.02 0  0.9399999999999999 0.02 0  0.96 0.02 0  0.98 0.02 0  1 0.02 0  1.02 0.02 0  1.04 0.02 0  1.06 0.02 0  1.08 0.02 0  1.1 0.02 0  1.12 0.02 0  1.14 0.02 0  1.16 0.02 0  1.18 0.02 0  1.2 0.02 0  1.22 0.02 0  1.24 0.02 0  1.26 0.02 0  1.28 0.02 0  1.3 0.02 0  1.32 0.02 0  1.34 0.02 0  1.36 0.02 0  1.38 0.02 0  1.4 0.02 0  1.42 0.02 0  1.44 0.02 0  1.46 0.02 0  1.48 0.02 0  1.5 0.02 0  1.52 0.02 0  1.54 0.02 0  1.56 0.02 0  1.58 0.02 0  1.6 0.02 0  1.62 0.02 0  1.64 0.02 0  1.66 0.02 0  1.68 0.02 0  1.7 0.02 0  1.72 0.02 0  1.74 0.02 0  1.76 0.02 0  1.78 0.02 0  1.8 0.02 0  1.82 0.02 0  1.84 0.02 0  1.86 0.02 0  1.88 0.02 0  1.9 0.02 0  1.92 0.02 0  1.94 0.02 0  1.96 0.02 0  1.98 0.02 0  2 0.02 0  0 0.04 0  0.02 0.04 0  0.04 0.04 0  0.06 0.04 0  0.08 0.04 0  0.1 0.04 0  0.12 0.04 0  0.14 0.04 0  0.16 0.04 0  0.18 0.04 0  0.2 0.04 0  0.22 0.04 0  0.24 0.04 0  0.26 0.04 0  0.28 0.04 0  0.3 0.04 0  0.32 0.04 0  0.34 0.04 0  0.36 0.04 0  0.38 0.04 0  0.4 0.04 0  0.42 0.04 0  0.44 0.04 0  0.46 0.04 0  0.48 0.04 0  0.5 0.04 0  0.52 0.04 0  0.54 0.04 0  0.5600000000000001 0.04 0  0.58 0.04 0  0.6 0.04 0  0.62 0.04 0  0.64 0.04 0  0.66 0.04 0  0.68 0.04 0  0.7 0.04 0  0.72 0.04 0  0.74 0.04 0  0.76 0.04 0  0.78 0.04 0  0.8 0.04 0  0.82 0.04 0  0.84 0.04 0  0.86 0.04 0  0.88 0.04 0  0.9 0.04 0  0.92 0.04 0  0.9399999999999999 0.04 0  0.96 0.04 0  0.98 0.04 0  1 0.04 0  1.02 0.04 0  1.04 0.04 0  1.06 0.04 0  1.08 0.04 0  1.1 0.04 0  1.12 0.04 0  1.14 0.04 0  1.16 0.04 0  1.18 0.04 0  1.2 0.04 0  1.22 0.04 0  1.24 0.04 0  1.26 0.04 0  1.28 0.04 0  1.3 0.04 0  1.32 0.04 0  1.34 0.04 0  1.36 0.04 0  1.38 0.04 0  1.4 0.04 0  1.42 0.04 0  1.44 0.04 0  1.46 0.04 0  1.48 0.04 0  1.5 0.04 0  1.52 0.04 0  1.54 0.04 0  1.56 0.04 0  1.58 0.04 0  1.6 0.04 0  1.62 0.04 0  1.64 0.04 0  1.66 0.04 0  1.68 0.04 0  1.7 0.04 0  1.72 0.04 0  1.74 0.04 0  1.76 0.04 0  1.78 0.04 0  1.8 0.04 0  1.82 0.04 0  1.84 0.04 0  1.86 0.04 0  1.88 0.04 0  1.9 0.04 0  1.92 0.04 0  1.94 0.04 0  1.96 0.04 0  1.98 0.04 0  2 0.04 0  0 0.06 0  0.02 0.06 0  0.04 0.06 0  0.06 0.06 0  0.08 0.06 0  0.1 0.06 0  0.12 0.06 0  0.14 0.06 0  0.16 0.06 0  0.18 0.06 0  0.2 0.06 0  0.22 0.06 0  0.24 0.06 0  0.26 0.06 0  0.28 0.06 0  0.3 0.06 0  0.32 0.06 0  0.34 0.06 0  0.36 0.06 0  0.38 0.06 0  0.4 0.06 0  0.42 0.06 0  0.44 0.06 0  0.46 0.06 0  0.48 0.06 0  0.5 0.06 0  0.52 0.06 0  0.54 0.06 0  0.5600000000000001 0.06 0  0.58 0.06 0  0.6 0.06 0  0.62 0.06 0  0.64 0.06 0  0.66 0.06 0  0.68 0.06 0  0.7 0.06 0  0.72 0.06 0  0.74 0.06 0  0.76 0.06 0  0.78 0.06 0  0.8 0.06 0  0.82 0.06 0  0.84 0.06 0  0.86 0.06 0  0.88 0.06 0  0.9 0.06 0  0.92 0.06 0  0.9399999999999999 0.06 0  0.96 0.06 0  0.98 0.06 0  1 0.06 0  1.02 0.06 0  1.04 0.06 0  1.06 0.06 0  1.08 0.06 0  1.1 0.06 0  1.12 0.06 0  1.14 0.06 0  1.16 0.06 0  1.18 0.06 0  1.2 0.06 0  1.22 0.06 0  1.24 0.06 0  1.26 0.06 0  1.28 0.06 0  1.3 0.06 0  1.32 0.06 0  1.34 0.06 0  1.36 0.06 0  1.38 0.06 0  1.4 0.06 0  1.42 0.06 0  1.44 0.06 0  1.46 0.06 0  1.48 0.06 0  1.5 0.06 0  1.52 0.06 0  1.54 0.06 0  1.56 0.06 0  1.58 0.06 0  1.6 0.06 0  1.62 0.06 0  1.64 0.06 0  1.66 0.06 0  1.68 0.06 0  1.7 0.06 0  1.72 0.06 0  1.74 0.06 0  1.76 0.06 0  1.78 0.06 0  1.8 0.06 0  1.82 0.06 0  1.84 0.06 0  1.86 0.06 0  1.88 0.06 0  1.9 0.06 0  1.92 0.06 0  1.94 0.06 0  1.96 0.06 0  1.98 0.06 0  2 0.06 0  0 0.08 0  0.02 0.08 0  0.04 0.08 0  0.06 0.08 0  0.08 0.08 0  0.1 0.08 0  0.12 0.08 0  0.14 0.08 0  0.16 0.08 0  0.18 0.08 0  0.2 0.08 0  0.22 0.08 0  0.24 0.08 0  0.26 0.08 0  0.28 0.08 0  0.3 0.08 0  0.32 0.08 0  0.34 0.08 0  0.36 0.08 0  0.38 0.08 0  0.4 0.08 0  0.42 0.08 0  0.44 0.08 0  0.46 0.08 0  0.48 0.08 0  0.5 0.08 0  0.52 0.08 0  0.54 0.08 0  0.5600000000000001 0.08 0  0.58 0.08 0  0.6 0.08 0  0.62 0.08 0  0.64 0.08 0  0.66 0.08 0  0.68 0.08 0  0.7 0.08 0  0.72 0.08 0  0.74 0.08 0  0.76 0.08 0  0.78 0.08 0  0.8 0.08 0  0.82 0.08 0  0.84 0.08 0  0.86 0.08 0  0.88 0.08 0  0.9 0.08 0  0.92 0.08 0  0.9399999999999999 0.08 0  0.96 0.08 0  0.98 0.08 0  1 0.08 0  1.02 0.08 0  1.04 0.08 0  1.06 0.08 0  1.08 0.08 0  1.1 0.08 0  1.12 0.08 0  1.14 0.08 0  1.16 0.08 0  1.18 0.08 0  1.2 0.08 0  1.22 0.08 0  1.24 0.08 0  1.26 0.08 0  1.28 0.08 0  1.3 0.08 0  1.32 0.08 0  1.34 0.08 0  1.36 0.08 0  1.38 0.08 0  1.4 0.08 0  1.42 0.08 0  1.44 0.08 0  1.46 0.08 0  1.48 0.08 0  1.5 0.08 0  1.52 0.08 0  1.54 0.08 0  1.56 0.08 0  1.58 0.08 0  1.6 0.08 0  1.62 0.08 0  1.64 0.08 0  1.66 0.08 0  1.68 0.08 0  1.7 0.08 0  1.72 0.08 0  1.74 0.08 0  1.76 0.08 0  1.78 0.08 0  1.8 0.08 0  1.82 0.08 0  1.84 0.08 0  1.86 0.08 0  1.88 0.08 0  1.9 0.08 0  1.92 0.08 0  1.94 0.08 0  1.96 0.08 0  1.98 0.08 0  2 0.08 0  0 0.1 0  0.02 0.1 0  0.04 0.1 0  0.06 0.1 0  0.08 0.1 0  0.1 0.1 0  0.12 0.1 0  0.14 0.1 0  0.16 0.1 0  0.18 0.1 0  0.2 0.1 0  0.22 0.1 0  0.24 0.1 0  0.26 0.1 0  0.28 0.1 0  0.3 0.1 0  0.32 0.1 0  0.34 0.1 0  0.36 0.1 0  0.38 0.1 0  0.4 0.1 0  0.42 0.1 0  0.44 0.1 0  0.46 0.1 0  0.48 0.1 0  0.5 0.1 0  0.52 0.1 0  0.54 0.1 0  0.5600000000000001 0.1 0  0.58 0.1 0  0.6 0.1 0  0.62 0.1 0  0.64 0.1 0  0.66 0.1 0  0.68 0.1 0  0.7 0.1 0  0.72 0.1 0  0.74 0.1 0  0.76 0.1 0  0.78 0.1 0  0.8 0.1 0  0.82 0.1 0  0.84 0.1 0  0.86 0.1 0  0.88 0.1 0  0.9 0.1 0  0.92 0.1 0  0.9399999999999999 0.1 0  0.96 0.1 0  0.98 0.1 0  1 0.1 0  1.02 0.1 0  1.04 0.1 0  1.06 0.1 0  1.08 0.1 0  1.1 0.1 0  1.12 0.1 0  1.14 0.1 0  1.16 0.1 0  1.18 0.1 0  1.2 0.1 0  1.22 0.1 0  1.24 0.1 0  1.26 0.1 0  1.28 0.1 0  1.3 0.1 0  1.32 0.1 0  1.34 0.1 0  1.36 0.1 0  1.38 0.1 0  1.4 0.1 0  1.42 0.1 0  1.44 0.1 0  1.46 0.1 0  1.48 0.1 0  1.5 0.1 0  1.52 0.1 0  1.54 0.1 0  1.56 0.1 0  1.58 0.1 0  1.6 0.1 0  1.62 0.1 0  1.64 0.1 0  1.66 0.1 0  1.68 0.1 0  1.7 0.1 0  1.72 0.1 0  1.74 0.1 0  1.76 0.1 0  1.78 0.1 0  1.8 0.1 0  1.82 0.1 0  1.84 0.1 0  1.86 0.1 0  1.88 0.1 0  1.9 0.1 0  1.92 0.1 0  1.94 0.1 0  1.96 0.1 0  1.98 0.1 0  2 0.1 0  0 0.12 0  0.02 0.12 0  0.04 0.12 0  0.06 0.12 0  0.08 0.12 0  0.1 0.12 0  0.12 0.12 0  0.14 0.12 0  0.16 0.12 0  0.18 0.12 0  0.2 0.12 0  0.22 0.12 0  0.24 0.12 0  0.26 0.12 0  0.28 0.12 0  0.3 0.12 0  0.32 0.12 0  0.34 0.12 0  0.36 0.12 0  0.38 0.12 0  0.4 0.12 0  0.42 0.12 0  0.44 0.12 0  0.46 0.12 0  0.48 0.12 0  0.5 0.12 0  0.52 0.12 0  0.54 0.12 0  0.5600000000000001 0.12 0  0.58 0.12 0  0.6 0.12 0  0.62 0.12 0  0.64 0.12 0  0.66 0.12 0  0.68 0.12 0  0.7 0.12 0  0.72 0.12 0  0.74 0.12 0  0.76 0.12 0  0.78 0.12 0  0.8 0.12 0  0.82 0.12 0  0.84 0.12 0  0.86 0.12 0  0.88 0.12 0  0.9 0.12 0  0.92 0.12 0  0.9399999999999999 0.12 0  0.96 0.12 0  0.98 0.12 0  1 0.12 0  1.02 0.12 0  1.04 0.12 0  1.06 0.12 0  1.08 0.12 0  1.1 0.12 0  1.12 0.12 0  1.14 0.12 0  1.16 0.12 0  1.18 0.12 0  1.2 0.12 0  1.22 0.12 0  1.24 0.12 0  1.26 0.12 0  1.28 0.12 0  1.3 0.12 0  1.32 0.12 0  1.34 0.12 0  1.36 0.12 0  1.38 0.12 0  1.4 0.12 0  1.42 0.12 0  1.44 0.12 0  1.46 0.12 0  1.48 0.12 0  1.5 0.12 0  1.52 0.12 0  1.54 0.12 0  1.56 0.12 0  1.58 0.12 0  1.6 0.12 0  1.62 0.12 0  1.64 0.12 0  1.66 0.12 0  1.68 0.12 0  1.7 0.12 0  1.72 0.12 0  1.74 0.12 0  1.76 0.12 0  1.78 0.12 0  1.8 0.12 0  1.82 0.12 0  1.84 0.12 0  1.86 0.12 0  1.88 0.12 0  1.9 0.12 0  1.92 0.12 0  1.94 0.12 0  1.96 0.12 0  1.98 0.12 0  2 0.12 0  0 0.14 0  0.02 0.14 0  0.04 0.14 0  0.06 0.14 0  0.08 0.14 0  0.1 0.14 0  0.12 0.14 0  0.14 0.14 0  0.16 0.14 0  0.18 0.14 0  0.2 0.14 0  0.22 0.14 0  0.24 0.14 0  0.26 0.14 0  0.28 0.14 0  0.3 0.14 0  0.32 0.14 0  0.34 0.14 0  0.36 0.14 0  0.38 0.14 0  0.4 0.14 0  0.42 0.14 0  0.44 0.14 0  0.46 0.14 0  0.48 0.14 0  0.5 0.14 0  0.52 0.14 0  0.54 0.14 0  0.5600000000000001 0.14 0  0.58 0.14 0  0.6 0.14 0  0.62 0.14 0  0.64 0.14 0  0.66 0.14 0  0.68 0.14 0  0.7 0.14 0  0.72 0.14 0  0.74 0.14 0  0.76 0.14 0  0.78 0.14 0  0.8 0.14 0  0.82 0.14 0  0.84 0.14 0  0.86 0.14 0  0.88 0.14 0  0.9 0.14 0  0.92 0.14 0  0.9399999999999999 0.14 0  0.96 0.14 0  0.98 0.14 0  1 0.14 0  1.02 0.14 0  1.04 0.14 0  1.06 0.14 0  1.08 0.14 0  1.1 0.14 0  1.12 0.14 0  1.14 0.14 0  1.16 0.14 0  1.18 0.14 0  1.2 0.14 0  1.22 0.14 0  1.24 0.14 0  1.26 0.14 0  1.28 0.14 0  1.3 0.14 0  1.32 0.14 0  1.34 0.14 0  1.36 0.14 0  1.38 0.14 0  1.4 0.14 0  1.42 0.14 0  1.44 0.14 0  1.46 0.14 0  1.48 0.14 0  1
[...]
<PointData  Scalars="sols[i]"> 
<DataArray  type="Float64"  Name="sols[i]"  format="ascii">8.5780580483181968e-04  5.7206047978034728e-04  5.7206047990186499e-04  5.7206048015073091e-04  5.7206048062847289e-04  5.7206048152224135e-04  5.7206048316919519e-04  5.7206048616671701e-04  5.7206049155832681e-04  5.7206050114321384e-04  5.7206051798665519e-04  5.7206054725807056e-04  5.7206059761072360e-04  5.7206068347755916e-04  5.7206082896022305e-04  5.7206107455742069e-04  5.7206148901844120e-04  5.7206219040280997e-04  5.7206338326595049e-04  5.7206542280058444e-04  5.7206892091354834e-04  5.7207491089720087e-04  5.7208508075396532e-04  5.7210206103804236e-04  5.7212970113442829e-04  5.7217318610377588e-04  5.7223875725983934e-04  5.7233276950924706e-04  5.7245995446310283e-04  5.7262114135194896e-04  5.7281121131062482e-04  5.7301829518502259e-04  5.7322489368642651e-04  5.7341094534266797e-04  5.7355794160866098e-04  5.7365241270200019e-04  5.7368748883229888e-04  5.7366275625418467e-04  5.7358366504201876e-04  5.7346081134985972e-04  5.7330836926121397e-04  5.7314161307750401e-04  5.7297432129097524e-04  5.7281697887409341e-04  5.7267614541045889e-04  5.7255481046013810e-04  5.7245328284708896e-04  5.7237017897368439e-04  5.7230325541918420e-04  5.7224999787481895e-04  5.7220797680332977e-04  5.7217502483359706e-04  5.7214929890906643e-04  5.7212927839225369e-04  5.7211373334029080e-04  5.7210168256541650e-04  5.7209235107704294e-04  5.7208513102808081e-04  5.7207954784017304e-04  5.7207523201368475e-04  5.7207189638972086e-04  5.7206931816985822e-04  5.7206732480926553e-04  5.7206578293875524e-04  5.7206458963838668e-04  5.7206366556389831e-04  5.7206294955762017e-04  5.7206239445544652e-04  5.7206196385040575e-04  5.7206162960984344e-04  5.7206136997705584e-04  5.7206116812049627e-04  5.7206101102319333e-04  5.7206088862953269e-04  5.7206079318605644e-04  5.7206071872802403e-04  5.7206066067535437e-04  5.7206061551143229e-04  5.7206058052656811e-04  5.7206055361453876e-04  5.7206053311503096e-04  5.7206051769670592e-04  5.7206050627525555e-04  5.7206049795951574e-04  5.7206049201740153e-04  5.7206048785375511e-04  5.7206048499368421e-04  5.7206048306734556e-04  5.7206048179448310e-04  5.7206048096868762e-04  5.7206048044216098e-04  5.7206048011189110e-04  5.7206047990787743e-04  5.7206047978365865e-04  5.7206047970904147e-04  5.7206047966481687e-04  5.7206047963898727e-04  5.7206047962421317e-04  5.7206047961614334e-04  5.7206047961237216e-04  1.7138687684194541e-03  5.7206047976808973e-04  2.8612149219981961e-04  2.8612149226499989e-04  2.8612149240178414e-04  2.8612149266723055e-04  2.8612149316796618e-04  2.8612149409783602e-04  2.8612149580305429e-04  2.8612149889282247e-04  2.8612150442419129e-04  2.8612151420708058e-04  2.8612153130339393e-04  2.8612156084238834e-04  2.8612161136228525e-04  2.8612169705526948e-04  2.8612184161634657e-04  2.8612208501237288e-04  2.8612249560881341e-04  2.8612319198567334e-04  2.8612438162573401e-04  2.8612642719618044e-04  2.8612995389517903e-04  2.8613600953100661e-04  2.8614627570143611e-04  2.8616329445096316e-04  2.8619061416898484e-04  2.8623268134752368e-04  2.8629425563706467e-04  2.8637919355546583e-04  2.8648872628526381e-04  2.8661981001098938e-04  2.8676436319314012e-04  2.8690994767746451e-04  2.8704200239800328e-04  2.8714700969151047e-04  2.8721520166044524e-04  2.8724164710301097e-04  2.8722593350132312e-04  2.8717171529457614e-04  2.8708639876855359e-04  2.8698010941266962e-04  2.8686384114197199e-04  2.8674747076142833e-04  2.8663841642222204e-04  2.8654120829679818e-04  2.8645780359041204e-04  2.8638827681768796e-04  2.8633155027721531e-04  2.8628598794294393e-04  2.8624980309439451e-04  2.8622129603285656e-04  2.8619896646936752e-04  2.8618154792058254e-04  2.8616800064155425e-04  2.8615748645269485e-04  2.8614933826478031e-04  2.8614303013015422e-04  2.8613815011492170e-04  2.8613437691885307e-04  2.8613146052600493e-04  2.8612920668686390e-04  2.8612746471080961e-04  2.8612611791901732e-04  2.8612507615136552e-04  2.8612426985728741e-04  2.8612364543573036e-04  2.8612316158042276e-04  2.8612278643836428e-04  2.8612249541962870e-04  2.8612226951961830e-04  2.8612209403767460e-04  2.8612195759848030e-04  2.8612185140316636e-04  2.8612176865407102e-04  2.8612170411033912e-04  2.8612165374170321e-04  2.8612161445571945e-04  2.8612158388039810e-04  2.8612156018993152e-04  2.8612154196592778e-04  2.8612152808970539e-04  2.8612151766250940e-04  2.8612150995009698e-04  2.8612150434693430e-04  2.8612150035417641e-04  2.8612149756566117e-04  2.8612149565732749e-04  2.8612149437721242e-04  2.8612149353495235e-04  2.8612149299090197e-04  2.8612149264553588e-04  2.8612149242984079e-04  2.8612149229716768e-04  2.8612149221671760e-04  2.8612149216858472e-04  2.8612149214016019e-04  2.8612149212360968e-04  2.8612149211415462e-04  2.8612149210896189e-04  2.8612149210643890e-04  5.7206047961226927e-04  5.7206047984837121e-04  2.8612149224633611e-04  2.8612149234583892e-04  2.8612149255668648e-04  2.8612149297025410e-04  2.8612149375965558e-04  2.8612149524363643e-04  2.8612149799859665e-04  2.8612150305066468e-04  2.8612151219877967e-04  2.8612152854877123e-04  2.8612155738354738e-04  2.8612160756828292e-04  2.8612169382000982e-04  2.8612184042168815e-04  2.8612208746803979e-04  2.8612250176512916e-04  2.8612319655007862e-04  2.8612436798248234e-04  2.8612636270778963e-04  2.8612979994790857e-04  2.8613578153688412e-04  2.8614622686314305e-04  2.8616435074904525e-04  2.8619523520226396e-04  2.8624630495678285e-04  2.8632730613652765e-04  2.8644919693034403e-04  2.8662142686329680e-04  2.8684775133152988e-04  2.8712207337842281e-04  2.8742648825528768e-04  2.8773282501150547e-04  2.8800813076884386e-04  2.8822269196646219e-04  2.8835654596984716e-04  2.8840106599723836e-04  2.8835679026321265e-04  2.8823230487985804e-04  2.8804447329829226e-04  2.8781621400584970e-04  2.8757183242336573e-04  2.8733220384179333e-04  2.8711198511324309e-04  2.8691917511707412e-04  2.8675632320636119e-04  2.8662235121438933e-04  2.8651420594634833e-04  2.8642806237076689e-04  2.8636007323555194e-04  2.8630675438994239e-04  2.8626512856309979e-04  2.8623273659611384e-04  2.8620758870357701e-04  2.8618809638394899e-04  2.8617300416565840e-04  2.8616132753885997e-04  2.8615229856091950e-04  2.8614531987751349e-04  2.8613992736613943e-04  2.8613576070449963e-04  2.8613254053978012e-04  2.8613005075404132e-04  2.8612812453374662e-04  2.8612663334130469e-04  2.8612547819868348e-04  2.8612458285918975e-04  2.8612388851929861e-04  2.8612334976288217e-04  2.8612293146764670e-04  2.8612260644862069e-04  2.8612235366032020e-04  2.8612215682071845e-04  2.8612200335343351e-04  2.8612188356942701e-04  2.8612179002786314e-04  2.8612171703014557e-04  2.8612166021371846e-04  2.8612161622368560e-04  2.8612158244989785e-04  2.8612155682341666e-04  2.8612153766815747e-04  2.8612152360147193e-04  2.8612151347361320e-04  2.8612150633321035e-04  2.8612150140611039e-04  2.8612149807808102e-04  2.8612149587622633e-04  2.8612149444791894e-04  2.8612149353843014e-04  2.8612149296923560e-04  2.8612149261868377e-04  2.8612149240597826e-04  2.8612149227869076e-04  2.8612149220350280e-04  2.8612149215964634e-04  2.8612149213441012e-04  2.8612149212015449e-04  2.8612149211240716e-04  2.8612149210868423e-04  5.7206047961557110e-04  5.7206047999702682e-04  2.8612149233483611e-04  2.8612149250118412e-04  2.8612149285696565e-04  2.8612149356317706e-04  2.8612149492876320e-04  2.8612149753051925e-04  2.8612150242612574e-04  2.8612151152401419e-04  2.8612152821182256e-04  2.8612155840169844e-04  2.8612161223388151e-04  2.8612170680607251e-04  2.8612187050413814e-04  2.8612214989968135e-04  2.8612262099626307e-04  2.8612340839661557e-04  2.8612471983054897e-04  2.8612691135922657e-04  2.8613061321031429e-04  2.8613697009620734e-04  2.8614808162560890e-04  2.8616775476577526e-04  2.8620266379738636e-04  2.8626388236238491e-04  2.8636841414237735e-04  2.8653975713911436e-04  2.8680584519021296e-04  2.8719254121731578e-04  2.8771243011995492e-04  2.8835309440530999e-04  2.8907135154591370e-04  2.8979645215492796e-04  2.9044445278431791e-04  2.9094113101599977e-04  2.9124034019111449e-04  2.9132588396766983e-04  2.9120143282859343e-04  2.9088801428556763e-04  2.9042829743449578e-04  2.8988075856842309e-04  2.8930599413239404e-04  2.8875346541660553e-04  2.8825531043278751e-04  2.8782669074011748e-04  2.8747005511805005e-04  2.8718026295374515e-04  2.8694860508687273e-04  2.8676543160051327e-04  2.8662163717745552e-04  2.8650930593874830e-04  2.8642185487975642e-04  2.8635394331853059e-04  2.8630129997999124e-04  2.8626054091264913e-04  2.8622900679991066e-04  2.8620462220185165e-04  2.8618577415162453e-04  2.8617121079778894e-04  2.8615996049649031e-04  2.8615126920897868e-04  2.8614455260285459e-04  2.8613935902130257e-04  2.8613534027540396e-04  2.8613222838590424e-04  2.8612981716338241e-04  2.8612794781047025e-04  2.8612649782701685e-04  2.8612537254833303e-04  2.8612449871739406e-04  2.8612381959823368e-04  2.8612329124916438e-04  2.8612287966870592e-04  2.8612255859968027e-04  2.8612230782880735e-04  2.8612211185576866e-04  2.8612195883458076e-04  2.8612183971687998e-04  2.8612174755276553e-04  2.8612167692736808e-04  2.8612162352562558e-04  2.8612158382065379e-04  2.8612155487353738e-04  2.8612153422043110e-04  2.8612151981479729e-04  2.8612150999368972e-04  2.8612150344608600e-04  2.8612149917314847e-04  2.8612149644005223e-04  2.8612149472415191e-04  2.8612149366521674e-04  2.8612149302195732e-04  2.8612149263684795e-04  2.8612149240937702e-04  2.8612149227670358e-04  2.8612149220026196e-04  2.8612149215679131e-04  2.8612149213250724e-04  2.8612149211944108e-04  2.8612149211321673e-04  5.7206047962251889e-04  5.7206048025106775e-04  2.8612149248807931e-04  2.8612149277302748e-04  2.8612149338842806e-04  2.8612149462447481e-04  2.8612149704543960e-04  2.8612150171983763e-04  2.8612151063560739e-04  2.8612152743166959e-04  2.8612155865769852e-04  2.8612161589194077e-04  2.8612171921353586e-04  2.8612190275776142e-04  2.8612222342236479e-04  2.8612277437361458e-04  2.8612370621390235e-04  2.8612526154207736e-04  2.8612783551376956e-04  2.8613209059702839e-04  2.8613918596223534e-04  2.8615124102603496e-04  2.8617224405317416e-04  2.8620972166336437e-04  2.8627752364292463e-04  2.8639986450016341e-04  2.8661600566674063e-04  2.8698338922420738e-04  2.8757473934127285e-04  2.8846299787345017e-04  2.8969076523897689e-04  2.9123608746510829e-04  2.9299472747084483e-04  2.9478385125133126e-04  2.9637851670285479e-04  2.9758122507856814e-04  2.9827961985931539e-04  2.9844606830919501e-04  2.9809373735116443e-04  2.9727330634425581e-04  2.9609973662904712e-04  2.9473208785620335e-04  2.9332926760075129e-04  2.9201179227874880e-04  2.9084989014919332e-04  2.8986943964418976e-04  2.8906666751933444e-04  2.8842263908796808e-04  2.8791280896987479e-04  2.8751254227270425e-04  2.8719990744716073e-04  2.8695655383150756e-04  2.8676759473863502e-04  2.8662114297504785e-04  2.8650778580968216e-04  2.8642011344001748e-04  2.8635233331607464e-04  2.8629994684730629e-04  2.8625947080373527e-04  2.8622820707663419e-04  2.8620406283122587e-04  2.8618541416263724e-04  2.8617100324971055e-04  2.8615985900671778e-04  2.8615123394768371e-04  2.8614455353035556e-04  2.8613937601318579e-04  2.8613536121137827e-04  2.8613224658168078e-04  2.8612982909971042e-04  2.8612795154440832e-04  2.8612649208183518e-04  2.8612535631744693e-04  2.8612447120291676e-04  2.8612378034406345e-04  2.8612324036547476e-04  2.8612281806020246e-04  2.8612248811134906e-04  2.8612223123137312e-04  2.8612203262689227e-04  2.8612188075216268e-04  2.8612176634883614e-04  2.8612168177307974e-04  2.8612162058586912e-04  2.8612157734566777e-04  2.8612154751982204e-04  2.8612152743598396e-04  2.8612151422203937e-04  2.8612150571573401e-04  2.8612150034944760e-04  2.8612149702619062e-04  2.8612149500262599e-04  2.8612149378930672e-04  2.8612149307201439e-04  2.8612149265346920e-04  2.8612149241221752e-04  2.8612149227479902e-04  2.8612149219750841e-04  2.8612149215477838e-04  2.8612149213199821e-04  2.8612149212122107e-04  5.7206047963486535e-04  5.7206048066814016e-04  2.8612149274228856e-04  2.8612149322938905e-04  2.8612149429194480e-04  2.8612149645130397e-04  2.8612150073511263e-04  2.8612150911793788e-04  2.8612152532948452e-04  2.8612155630301675e-04  2.8612161471095528e-04  2.8612172329175453e-04  2.8612192202872509e-04  2.8612227970511317e-04  2.8612291194214776e-04  2.8612400863009372e-04  2.8612587517351062e-04  2.8612899584032879e-04  2.8613413824957830e-04  2.8614254613400176e-04  2.8615633357449092e-04  2.8617933075389873e-04  2.8621887417927441e-04  2.8628937885115261e-04  2.8641883199014267e-04  2.8665917199295328e-04  2.8710004124104507e-04  2.8788162155845664e-04  2.8919539729553372e-04  2.9125349183804756e-04  2.9420602562216502e-04  2.9803855554470831e-04  3.0251429419172511e-04  3.0715348335893275e-04  3.1131121814926605e-04  3.1440562883072167e-04  3.1613224926956777e-04  3.1645684867758243e-04  3.1541543412037516e-04  3.1312780109885865e-04  3.0994426828212122e-04  3.0634356032490967e-04  3.0277063816173532e-04  2.9952265291139399e-04  2.9674241390923052e-04  2.9445496038269816e-04  2.9261921485633811e-04  2.9116909385928393e-04  2.9003434209496661e-04  2.8915076940209483e-04  2.8846463789905671e-04  2.8793279385704289e-04  2.8752112439249717e-04  2.8720283699900284e-04  2.8695693837465922e-04  2.8676701537124502e-04  2.8662031962684747e-04  2.8650701440132445e-04  2.8641951786395235e-04  2.8635196927489170e-04  2.8629982526636897e-04  2.8625956115496372e-04  2.8622844919580200e-04  2.8620438730871003e-04  2.8618576077033101e-04  2.8617133035392151e-04  2.8616014394103534e-04  2.8615146822796037e-04  2.8614473691893332e-04  2.8613951176046900e-04  2.8613545313851897e-04  2.8613229774470810e-04  2.8612984151438767e-04  2.8612792652659021e-04  2.8612643090952046e-04  2.8612526102067765e-04  2.8612434530868796e-04  2.8612362937993987e-04  2.8612307192560024e-04  2.8612264131639721e-04  2.8612231281284045e-04  2.8612206642371428e-04  2.8612188544585387e-04  2.8612175563749178e-04  2.8612166486641531e-04  2.8612160301013647e-04  2.8612156190674159e-04  2.8612153523732719e-04  2.8612151831093635e-04  2.8612150778213727e-04  2.8612150135091637e-04  2.8612149748658125e-04  2.8612149519893711e-04  2.8612149386299235e-04  2.8612149309259168e-04  2.8612149265355577e-04  2.8612149240622205e-04  2.8612149226858307e-04  2.8612149219325254e-04  2.8612149215344947e-04  2.8612149213473603e-04  5.7206047965568984e-04  5.7206048133470549e-04  2.8612149315255337e-04  2.8612149397531049e-04  2.8612149578839658e-04  2.8612149951674477e-04  2.8612150700924228e-04  2.8612152187245288e-04  2.8612155102775898e-04  2.8612160755495179e-04  2.8612171576637620e-04  2.8612192003002907e-04  2.8612229966388424e-04  2.8612299324153479e-04  2.8612423677501904e-04  2.8612642132311257e-04  2.8613017680922264e-04  2.8613649216179763e-04  2.8614689470137352e-04  2.8616375487376157e-04  2.8619090431659754e-04  2.8623504814123018e-04  2.8630905145606727e-04  2.8643919012408947e-04  2.8667970970636618e-04  2.8713864564622598e-04  2.8801682333473534e-04  2.8965462873450042e-04  2.9256411948830276e-04  2.9739411340550187e-04  3.0472300746519937e-04  3.1475060004523922e-04  3.2709645614221967e-04  3.4052823942112192e-04  3.5294032732201643e-04  3.6219162186528143e-04  3.6717084937939846e-04  3.6787438624453936e-04  3.6435371094975034e-04  3.5689130687349268e-04  3.4690398303479448e-04  3.3619595454137039e-04  3.2618246581802088e-04  3.1756994766798171e-04  3.1054576831160641e-04  3.0498864556609685e-04  3.0066005732782940e-04  2.9731740837080978e-04  2.9474535726734295e-04  2.9276645470377709e-04  2.9124291439855653e-04  2.9006954646131967e-04  2.8916579953183416e-04  2.8846977083507179e-04  2.8793367391583154e-04  2.8752052471035664e-04  2.8720189265195550e-04  2.8695606479128138e-04  2.8676641570235452e-04  2.8662013037591928e-04  2.8650728613414662e-04  2.8642019170018888e-04  2.8635290598416673e-04  2.8630086470758653e-04  2.8626057212015967e-04  2.8622935042019713e-04  2.8620514370738864e-04  2.8618636817644518e-04  2.8617179980281186e-04  2.8616049060268417e-04  2.8615170553409534e-04  2.8614487449116379e-04  2.8613955557072021e-04  2.8613540682120007e-04  2.8613216446974780e-04  2.8612962607921916e-04  2.8612763732365572e-04  2.8612608129435465e-04  2.8612486955225736e-04  2.8612393452490353e-04  2.8612322320998868e-04  2.8612269236363071e-04  2.8612230533221750e-04  2.8612203043585635e-04  2.8612184047463051e-04  2.8612171275211359e-04  2.8612162909820188e-04  2.8612157562400909e-04  2.8612154218770594e-04  2.8612152168988288e-04  2.8612150934342905e-04  2.8612150202313874e-04  2.8612149774426103e-04  2.8612149527554081e-04  2.8612149386834614e-04  2.8612149307536989e-04  2.8612149263348958e-04  2.8612149239017509e-04  2.8612149225834159e-04  2.8612149218930404e-04  2.8612149215704577e-04  5.7206047968995800e-04  5.7206048237574687e-04  2.8612149379954191e-04  2.8612149516698952e-04  2.8612149821150078e-04  2.8612150454700516e-04  2.8612151744619545e-04  2.8612154339296330e-04  2.8612159503782367e-04  2.8612169670579068e-04  2.8612189443642702e-04  2.8612227382977101e-04  2.8612299084259095e-04  2.8612432309745608e-04  2.8612675185187128e-04  2.8613108656995033e-04  2.8613864368812376e-04  2.8615148880510382e-04  2.8617275563937151e-04  2.8620710078180187e-04  2.8626154131929083e-04  2.8634748401734156e-04  2.8648611381790965e-04  2.8672201559284559e-04  2.8715413645235063e-04  2.8799758318447013e-04  2.8969032242539666e-04  2.9305285993993098e-04  2.9948702776693841e-04  3.1114652442461457e-04  3.3063308109513060e-04  3.6029786553252600e-04  4.0182497851466346e-04  4.5405454163826870e-04  5.0905978619814767e-04  5.5327989512118816e-04  5.7715572989106966e-04  5.8012619048244301e-04  5.6150606279815744e-04  5.2250244370837494e-04  4.7468285657014558e-04  4.2988339212750391e-04  3.9361270122031049e-04  3.6603844025402086e-04  3.4567562264814944e-04  3.3074123191464407e-04  3.1973520940038064e-04  3.1158109783750780e-04  3.0549553794537165e-04  3.0091426616839765e-04  2.9744332149438764e-04  2.9480276530599857e-04  2.9278817039406831e-04  2.9124808045111574e-04  2.9006869557254839e-04  2.8916359210752869e-04  2.8846761085816932e-04  2.8793188301535892e-04  2.8751938964565913e-04  2.8720174128377617e-04  2.8695703163386232e-04  2.8676832866310548e-04  2.8662260688734620e-04  2.8650991355227062e-04  2.8642265922103013e-04  2.8635504438217401e-04  2.8630262066578195e-04  2.8626196043042383e-04  2.8623041280310713e-04  2.8620592368960217e-04  2.8618689995236606e-04  2.8617210578433074e-04  2.8616058333856033e-04  2.8615159158507867e-04  2.8614455922922695e-04  2.8613904841762167e-04  2.8613472627139064e-04  2.8613134170625397e-04  2.8612870571325419e-04  2.8612667426496303e-04  2.8612513397514091e-04  2.8612399119987196e-04  2.8612316517736928e-04  2.8612258503813088e-04  2.8612218948733168e-04  2.8612192748145288e-04  2.8612175856511173e-04  2.8612165230068799e-04  2.8612158688846704e-04  2.8612154738543745e-04  2.8612152392683683e-04  2.8612151020262230e-04  2.8612150228100262e-04  2.8612149776507164e-04  2.8612149522044963e-04  2.8612149380247392e-04  2.8612149302091280e-04  2.8612149259512752e-04  2.8612149236677405e-04  2.8612149224828079e-04  2.8612149219326371e-04  5.7206047974537103e-04  5.7206048396531389e-04  2.8612149479707107e-04  2.8612149702827560e-04  2.8612150204733791e-04  2.8612151261721438e-04  2.8612153442247515e-04  2.8612157890522982e-04  2.8612166877209203e-04  2.8612184847917989e-04  2.8612220378786189e-04  2.8612289738286808e-04  2.8612423193663815e-04  2.8612675799680724e-04  2.8613145086875386e-04  2.8613998545514173e-04  2.8615513477943052e-04  2.8618129821262651e-04  2.8622512785369359e-04  2.8629620663031172e-04  2.8640791533022299e-04  2.8657951727996183e-04  2.86843244249