<?xml version="1.0"?>
<VTKFile type="UnstructuredGrid"  version="0.1"  >
<UnstructuredGrid>
<Piece  NumberOfPoints="5151" NumberOfCells="10000">
<Points>
<DataArray  type="Float64"  NumberOfComponents="3"  format="ascii">0 0 0  0.02 0 0  0.04 0 0  0.06 0 0  0.08 0 0  0.1 0 0  0.12 0 0  0.14 0 0  0.16 0 0  0.18 0 0  0.2 0 0  0.22 0 0  0.24 0 0  0.26 0 0  0.28 0 0  0.3 0 0  0.32 0 0  0.34 0 0  0.36 0 0  0.38 0 0  0.4 0 0  0.42 0 0  0.44 0 0  0.46 0 0  0.48 0 0  0.5 0 0  0.52 0 0  0.54 0 0  0.5600000000000001 0 0  0.58 0 0  0.6 0 0  0.62 0 0  0.64 0 0  0.66 0 0  0.68 0 0  0.7 0 0  0.72 0 0  0.74 0 0  0.76 0 0  0.78 0 0  0.8 0 0  0.82 0 0  0.84 0 0  0.86 0 0  0.88 0 0  0.9 0 0  0.92 0 0  0.9399999999999999 0 0  0.96 0 0  0.98 0 0  1 0 0  1.02 0 0  1.04 0 0  1.06 0 0  1.08 0 0  1.1 0 0  1.12 0 0  1.14 0 0  1.16 0 0  1.18 0 0  1.2 0 0  1.22 0 0  1.24 0 0  1.26 0 0  1.28 0 0  1.3 0 0  1.32 0 0  1.34 0 0  1.36 0 0  1.38 0 0  1.4 0 0  1.42 0 0  1.44 0 0  1.46 0 0  1.48 0 0  1.5 0 0  1.52 0 0  1.54 0 0  1.56 0 0  1.58 0 0  1.6 0 0  1.62 0 0  1.64 0 0  1.66 0 0  1.68 0 0  1.7 0 0  1.72 0 0  1.74 0 0  1.76 0 0  1.78 0 0  1.8 0 0  1.82 0 0  1.84 0 0  1.86 0 0  1.88 0 0  1.9 0 0  1.92 0 0  1.94 0 0  1.96 0 0  1.98 0 0  2 0 0  0 0.02 0  0.02 0.02 0  0.04 0.02 0  0.06 0.02 0  0.08 0.02 0  0.1 0.02 0  0.12 0.02 0  0.14 0.02 0  0.16 0.02 0  0.18 0.02 0  0.2 0.02 0  0.22 0.02 0  0.24 0.02 0  0.26 0.02 0  0.28 0.02 0  0.3 0.02 0  0.32 0.02 0  0.34 0.02 0  0.36 0.02 0  0.38 0.02 0  0.4 0.02 0  0.42 0.02 0  0.44 0.02 0  0.46 0.02 0  0.48 0.02 0  0.5 0.02 0  0.52 0.02 0  0.54 0.02 0  0.5600000000000001 0.02 0  0.58 0.02 0  0.6 0.02 0  0.62 0.02 0  0.64 0.02 0  0.66 0.02 0  0.68 0.02 0  0.7 0.02 0  0.72 0.02 0  0.74 0.02 0  0.76 0.02 0  0.78 0.02 0  0.8 0.02 0  0.82 0.02 0  0.84 0.02 0  0.86 0.02 0  0.88 0.02 0  0.9 0.02 0  0.92 0.02 0  0.9399999999999999 0.02 0  0.96 0.02 0  0.98 0.02 0  1 0.02 0  1.02 0.02 0  1.04 0.02 0  1.06 0.02 0  1.08 0.02 0  1.1 0.02 0  1.12 0.02 0  1.14 0.02 0  1.16 0.02 0  1.18 0.02 0  1.2 0.02 0  1.22 0.02 0  1.24 0.02 0  1.26 0.02 0  1.28 0.02 0  1.3 0.02 0  1.32 0.02 0  1.34 0.02 0  1.36 0.02 0  1.38 0.02 0  1.4 0.02 0  1.42 0.02 0  1.44 0.02 0  1.46 0.02 0  1.48 0.02 0  1.5 0.02 0  1.52 0.02 0  1.54 0.02 0  1.56 0.02 0  1.58 0.02 0  1.6 0.02 0  1.62 0.02 0  1.64 0.02 0  1.66 0.02 0  1.68 0.02 0  1.7 0.02 0  1.72 0.02 0  1.74 0.02 0  1.76 0.02 0  1.78 0.02 0  1.8 0.02 0  1.82 0.02 0  1.84 0.02 0  1.86 0.02 0  1.88 0.02 0  1.9 0.02 0  1.92 0.02 0  1.94 0.02 0  1.96 0.02 0  1.98 0.02 0  2 0.02 0  0 0.04 0  0.02 0.04 0  0.04 0.04 0  0.06 0.04 0  0.08 0.04 0  0.1 0.04 0  0.12 0.04 0  0.14 0.04 0  0.16 0.04 0  0.18 0.04 0  0.2 0.04 0  0.22 0.04 0  0.24 0.04 0  0.26 0.04 0  0.28 0.04 0  0.3 0.04 0  0.32 0.04 0  0.34 0.04 0  0.36 0.04 0  0.38 0.04 0  0.4 0.04 0  0.42 0.04 0  0.44 0.04 0  0.46 0.04 0  0.48 0.04 0  0.5 0.04 0  0.52 0.04 0  0.54 0.04 0  0.5600000000000001 0.04 0  0.58 0.04 0  0.6 0.04 0  0.62 0.04 0  0.64 0.04 0  0.66 0.04 0  0.68 0.04 0  0.7 0.04 0  0.72 0.04 0  0.74 0.04 0  0.76 0.04 0  0.78 0.04 0  0.8 0.04 0  0.82 0.04 0  0.84 0.04 0  0.86 0.04 0  0.88 0.04 0  0.9 0.04 0  0.92 0.04 0  0.9399999999999999 0.04 0  0.96 0.04 0  0.98 0.04 0  1 0.04 0  1.02 0.04 0  1.04 0.04 0  1.06 0.04 0  1.08 0.04 0  1.1 0.04 0  1.12 0.04 0  1.14 0.04 0  1.16 0.04 0  1.18 0.04 0  1.2 0.04 0  1.22 0.04 0  1.24 0.04 0  1.26 0.04 0  1.28 0.04 0  1.3 0.04 0  1.32 0.04 0  1.34 0.04 0  1.36 0.04 0  1.38 0.04 0  1.4 0.04 0  1.42 0.04 0  1.44 0.04 0  1.46 0.04 0  1.48 0.04 0  1.5 0.04 0  1.52 0.04 0  1.54 0.04 0  1.56 0.04 0  1.58 0.04 0  1.6 0.04 0  1.62 0.04 0  1.64 0.04 0  1.66 0.04 0  1.68 0.04 0  1.7 0.04 0  1.72 0.04 0  1.74 0.04 0  1.76 0.04 0  1.78 0.04 0  1.8 0.04 0  1.82 0.04 0  1.84 0.04 0  1.86 0.04 0  1.88 0.04 0  1.9 0.04 0  1.92 0.04 0  1.94 0.04 0  1.96 0.04 0  1.98 0.04 0  2 0.04 0  0 0.06 0  0.02 0.06 0  0.04 0.06 0  0.06 0.06 0  0.08 0.06 0  0.1 0.06 0  0.12 0.06 0  0.14 0.06 0  0.16 0.06 0  0.18 0.06 0  0.2 0.06 0  0.22 0.06 0  0.24 0.06 0  0.26 0.06 0  0.28 0.06 0  0.3 0.06 0  0.32 0.06 0  0.34 0.06 0  0.36 0.06 0  0.38 0.06 0  0.4 0.06 0  0.42 0.06 0  0.44 0.06 0  0.46 0.06 0  0.48 0.06 0  0.5 0.06 0  0.52 0.06 0  0.54 0.06 0  0.5600000000000001 0.06 0  0.58 0.06 0  0.6 0.06 0  0.62 0.06 0  0.64 0.06 0  0.66 0.06 0  0.68 0.06 0  0.7 0.06 0  0.72 0.06 0  0.74 0.06 0  0.76 0.06 0  0.78 0.06 0  0.8 0.06 0  0.82 0.06 0  0.84 0.06 0  0.86 0.06 0  0.88 0.06 0  0.9 0.06 0  0.92 0.06 0  0.9399999999999999 0.06 0  0.96 0.06 0  0.98 0.06 0  1 0.06 0  1.02 0.06 0  1.04 0.06 0  1.06 0.06 0  1.08 0.06 0  1.1 0.06 0  1.12 0.06 0  1.14 0.06 0  1.16 0.06 0  1.18 0.06 0  1.2 0.06 0  1.22 0.06 0  1.24 0.06 0  1.26 0.06 0  1.28 0.06 0  1.3 0.06 0  1.32 0.06 0  1.34 0.06 0  1.36 0.06 0  1.38 0.06 0  1.4 0.06 0  1.42 0.06 0  1.44 0.06 0  1.46 0.06 0  1.48 0.06 0  1.5 0.06 0  1.52 0.06 0  1.54 0.06 0  1.56 0.06 0  1.58 0.06 0  1.6 0.06 0  1.62 0.06 0  1.64 0.06 0  1.66 0.06 0  1.68 0.06 0  1.7 0.06 0  1.72 0.06 0  1.74 0.06 0  1.76 0.06 0  1.78 0.06 0  1.8 0.06 0  1.82 0.06 0  1.84 0.06 0  1.86 0.06 0  1.88 0.06 0  1.9 0.06 0  1.92 0.06 0  1.94 0.06 0  1.96 0.06 0  1.98 0.06 0  2 0.06 0  0 0.08 0  0.02 0.08 0  0.04 0.08 0  0.06 0.08 0  0.08 0.08 0  0.1 0.08 0  0.12 0.08 0  0.14 0.08 0  0.16 0.08 0  0.18 0.08 0  0.2 0.08 0  0.22 0.08 0  0.24 0.08 0  0.26 0.08 0  0.28 0.08 0  0.3 0.08 0  0.32 0.08 0  0.34 0.08 0  0.36 0.08 0  0.38 0.08 0  0.4 0.08 0  0.42 0.08 0  0.44 0.08 0  0.46 0.08 0  0.48 0.08 0  0.5 0.08 0  0.52 0.08 0  0.54 0.08 0  0.5600000000000001 0.08 0  0.58 0.08 0  0.6 0.08 0  0.62 0.08 0  0.64 0.08 0  0.66 0.08 0  0.68 0.08 0  0.7 0.08 0  0.72 0.08 0  0.74 0.08 0  0.76 0.08 0  0.78 0.08 0  0.8 0.08 0  0.82 0.08 0  0.84 0.08 0  0.86 0.08 0  0.88 0.08 0  0.9 0.08 0  0.92 0.08 0  0.9399999999999999 0.08 0  0.96 0.08 0  0.98 0.08 0  1 0.08 0  1.02 0.08 0  1.04 0.08 0  1.06 0.08 0  1.08 0.08 0  1.1 0.08 0  1.12 0.08 0  1.14 0.08 0  1.16 0.08 0  1.18 0.08 0  1.2 0.08 0  1.22 0.08 0  1.24 0.08 0  1.26 0.08 0  1.28 0.08 0  1.3 0.08 0  1.32 0.08 0  1.34 0.08 0  1.36 0.08 0  1.38 0.08 0  1.4 0.08 0  1.42 0.08 0  1.44 0.08 0  1.46 0.08 0  1.48 0.08 0  1.5 0.08 0  1.52 0.08 0  1.54 0.08 0  1.56 0.08 0  1.58 0.08 0  1.6 0.08 0  1.62 0.08 0  1.64 0.08 0  1.66 0.08 0  1.68 0.08 0  1.7 0.08 0  1.72 0.08 0  1.74 0.08 0  1.76 0.08 0  1.78 0.08 0  1.8 0.08 0  1.82 0.08 0  1.84 0.08 0  1.86 0.08 0  1.88 0.08 0  1.9 0.08 0  1.92 0.08 0  1.94 0.08 0  1.96 0.08 0  1.98 0.08 0  2 0.08 0  0 0.1 0  0.02 0.1 0  0.04 0.1 0  0.06 0.1 0  0.08 0.1 0  0.1 0.1 0  0.12 0.1 0  0.14 0.1 0  0.16 0.1 0  0.18 0.1 0  0.2 0.1 0  0.22 0.1 0  0.24 0.1 0  0.26 0.1 0  0.28 0.1 0  0.3 0.1 0  0.32 0.1 0  0.34 0.1 0  0.36 0.1 0  0.38 0.1 0  0.4 0.1 0  0.42 0.1 0  0.44 0.1 0  0.46 0.1 0  0.48 0.1 0  0.5 0.1 0  0.52 0.1 0  0.54 0.1 0  0.5600000000000001 0.1 0  0.58 0.1 0  0.6 0.1 0  0.62 0.1 0  0.64 0.1 0  0.66 0.1 0  0.68 0.1 0  0.7 0.1 0  0.72 0.1 0  0.74 0.1 0  0.76 0.1 0  0.78 0.1 0  0.8 0.1 0  0.82 0.1 0  0.84 0.1 0  0.86 0.1 0  0.88 0.1 0  0.9 0.1 0  0.92 0.1 0  0.9399999999999999 0.1 0  0.96 0.1 0  0.98 0.1 0  1 0.1 0  1.02 0.1 0  1.04 0.1 0  1.06 0.1 0  1.08 0.1 0  1.1 0.1 0  1.12 0.1 0  1.14 0.1 0  1.16 0.1 0  1.18 0.1 0  1.2 0.1 0  1.22 0.1 0  1.24 0.1 0  1.26 0.1 0  1.28 0.1 0  1.3 0.1 0  1.32 0.1 0  1.34 0.1 0  1.36 0.1 0  1.38 0.1 0  1.4 0.1 0  1.42 0.1 0  1.44 0.1 0  1.46 0.1 0  1.48 0.1 0  1.5 0.1 0  1.52 0.1 0  1.54 0.1 0  1.56 0.1 0  1.58 0.1 0  1.6 0.1 0  1.62 0.1 0  1.64 0.1 0  1.66 0.1 0  1.68 0.1 0  1.7 0.1 0  1.72 0.1 0  1.74 0.1 0  1.76 0.1 0  1.78 0.1 0  1.8 0.1 0  1.82 0.1 0  1.84 0.1 0  1.86 0.1 0  1.88 0.1 0  1.9 0.1 0  1.92 0.1 0  1.94 0.1 0  1.96 0.1 0  1.98 0.1 0  2 0.1 0  0 0.12 0  0.02 0.12 0  0.04 0.12 0  0.06 0.12 0  0.08 0.12 0  0.1 0.12 0  0.12 0.12 0  0.14 0.12 0  0.16 0.12 0  0.18 0.12 0  0.2 0.12 0  0.22 0.12 0  0.24 0.12 0  0.26 0.12 0  0.28 0.12 0  0.3 0.12 0  0.32 0.12 0  0.34 0.12 0  0.36 0.12 0  0.38 0.12 0  0.4 0.12 0  0.42 0.12 0  0.44 0.12 0  0.46 0.12 0  0.48 0.12 0  0.5 0.12 0  0.52 0.12 0  0.54 0.12 0  0.5600000000000001 0.12 0  0.58 0.12 0  0.6 0.12 0  0.62 0.12 0  0.64 0.12 0  0.66 0.12 0  0.68 0.12 0  0.7 0.12 0  0.72 0.12 0  0.74 0.12 0  0.76 0.12 0  0.78 0.12 0  0.8 0.12 0  0.82 0.12 0  0.84 0.12 0  0.86 0.12 0  0.88 0.12 0  0.9 0.12 0  0.92 0.12 0  0.9399999999999999 0.12 0  0.96 0.12 0  0.98 0.12 0  1 0.12 0  1.02 0.12 0  1.04 0.12 0  1.06 0.12 0  1.08 0.12 0  1.1 0.12 0  1.12 0.12 0  1.14 0.12 0  1.16 0.12 0  1.18 0.12 0  1.2 0.12 0  1.22 0.12 0  1.24 0.12 0  1.26 0.12 0  1.28 0.12 0  1.3 0.12 0  1.32 0.12 0  1.34 0.12 0  1.36 0.12 0  1.38 0.12 0  1.4 0.12 0  1.42 0.12 0  1.44 0.12 0  1.46 0.12 0  1.48 0.12 0  1.5 0.12 0  1.52 0.12 0  1.54 0.12 0  1.56 0.12 0  1.58 0.12 0  1.6 0.12 0  1.62 0.12 0  1.64 0.12 0  1.66 0.12 0  1.68 0.12 0  1.7 0.12 0  1.72 0.12 0  1.74 0.12 0  1.76 0.12 0  1.78 0.12 0  1.8 0.12 0  1.82 0.12 0  1.84 0.12 0  1.86 0.12 0  1.88 0.12 0  1.9 0.12 0  1.92 0.12 0  1.94 0.12 0  1.96 0.12 0  1.98 0.12 0  2 0.12 0  0 0.14 0  0.02 0.14 0  0.04 0.14 0  0.06 0.14 0  0.08 0.14 0  0.1 0.14 0  0.12 0.14 0  0.14 0.14 0  0.16 0.14 0  0.18 0.14 0  0.2 0.14 0  0.22 0.14 0  0.24 0.14 0  0.26 0.14 0  0.28 0.14 0  0.3 0.14 0  0.32 0.14 0  0.34 0.14 0  0.36 0.14 0  0.38 0.14 0  0.4 0.14 0  0.42 0.14 0  0.44 0.14 0  0.46 0.14 0  0.48 0.14 0  0.5 0.14 0  0.52 0.14 0  0.54 0.14 0  0.5600000000000001 0.14 0  0.58 0.14 0  0.6 0.14 0  0.62 0.14 0  0.64 0.14 0  0.66 0.14 0  0.68 0.14 0  0.7 0.14 0  0.72 0.14 0  0.74 0.14 0  0.76 0.14 0  0.78 0.14 0  0.8 0.14 0  0.82 0.14 0  0.84 0.14 0  0.86 0.14 0  0.88 0.14 0  0.9 0.14 0  0.92 0.14 0  0.9399999999999999 0.14 0  0.96 0.14 0  0.98 0.14 0  1 0.14 0  1.02 0.14 0  1.04 0.14 0  1.06 0.14 0  1.08 0.14 0  1.1 0.14 0  1.12 0.14 0  1.14 0.14 0  1.16 0.14 0  1.18 0.14 0  1.2 0.14 0  1.22 0.14 0  1.24 0.14 0  1.26 0.14 0  1.28 0.14 0  1.3 0.14 0  1.32 0.14 0  1.34 0.14 0  1.36 0.14 0  1.38 0.14 0  1.4 0.14 0  1.42 0.14 0  1.44 0.14 0  1.46 0.14 0  1.48 0.14 0  1
[...]
<PointData  Scalars="sols[i]"> 
<DataArray  type="Float64"  Name="sols[i]"  format="ascii">2.1056770253564751e-04  1.4038519930301794e-04  1.4038519933284041e-04  1.4038519939391284e-04  1.4038519951114351e-04  1.4038519973044055e-04  1.4038520013449508e-04  1.4038520086978815e-04  1.4038520219212570e-04  1.4038520454240442e-04  1.4038520867145648e-04  1.4038521584484810e-04  1.4038522817969864e-04  1.4038524920455896e-04  1.4038528480689709e-04  1.4038534487112616e-04  1.4038544616316921e-04  1.4038561745492210e-04  1.4038590857432849e-04  1.4038640602139451e-04  1.4038725880568002e-04  1.4038871857679190e-04  1.4039119652061049e-04  1.4039533361006568e-04  1.4040206815347389e-04  1.4041266465937235e-04  1.4042864634667416e-04  1.4045156622259744e-04  1.4048258462951690e-04  1.4052191424760252e-04  1.4056832092955110e-04  1.4061892614705593e-04  1.4066947688457879e-04  1.4071509021414927e-04  1.4075125350372034e-04  1.4077467102116027e-04  1.4078364105417837e-04  1.4077801917139151e-04  1.4075907756105096e-04  1.4072933983297887e-04  1.4069221240323732e-04  1.4065139618248820e-04  1.4061026667487565e-04  1.4057143637567711e-04  1.4053658438932588e-04  1.4050651797710504e-04  1.4048136819400935e-04  1.4046082218637280e-04  1.4044432976057089e-04  1.4043125729526053e-04  1.4042098554999485e-04  1.4041296104145578e-04  1.4040671532392646e-04  1.4040186535338510e-04  1.4039810460689727e-04  1.4039519101978744e-04  1.4039293495134088e-04  1.4039118854441689e-04  1.4038983686094487e-04  1.4038879072404188e-04  1.4038798103136198e-04  1.4038735427891332e-04  1.4038686905978084e-04  1.4038649333759405e-04  1.4038620232973673e-04  1.4038597686683564e-04  1.4038580212220002e-04  1.4038566662796825e-04  1.4038556151355067e-04  1.4038547991661768e-04  1.4038541652810615e-04  1.4038536724118148e-04  1.4038532888062033e-04  1.4038529899407213e-04  1.4038527569059029e-04  1.4038525751498070e-04  1.4038524334913628e-04  1.4038523233381148e-04  1.4038522380628758e-04  1.4038521725100704e-04  1.4038521226135910e-04  1.4038520851129436e-04  1.4038520573539165e-04  1.4038520371570295e-04  1.4038520227339056e-04  1.4038520126325222e-04  1.4038520056958249e-04  1.4038520010239478e-04  1.4038519979359471e-04  1.4038519959309905e-04  1.4038519946509167e-04  1.4038519938463641e-04  1.4038519933480071e-04  1.4038519930434894e-04  1.4038519928597667e-04  1.4038519927503151e-04  1.4038519926860184e-04  1.4038519926490184e-04  1.4038519926286956e-04  1.4038519926191679e-04  4.2105335109533820e-04  1.4038519930001196e-04  7.0192590641732770e-05  7.0192590657721513e-05  7.0192590691273016e-05  7.0192590756379709e-05  7.0192590879186706e-05  7.0192591107217977e-05  7.0192591525337388e-05  7.0192592282836825e-05  7.0192593638681108e-05  7.0192596036111507e-05  7.0192600224618117e-05  7.0192607458997459e-05  7.0192619826516103e-05  7.0192640793765700e-05  7.0192676143324592e-05  7.0192735620076200e-05  7.0192835879949670e-05  7.0193005795298795e-05  7.0193295866676872e-05  7.0193794354869802e-05  7.0194653421352520e-05  7.0196128132601985e-05  7.0198627952964239e-05  7.0202772081879173e-05  7.0209425237141403e-05  7.0219671698073274e-05  7.0234673414640978e-05  7.0255374424993733e-05  7.0282081832082020e-05  7.0314063708259105e-05  7.0349361882235604e-05  7.0384955543151246e-05  7.0417303106819537e-05  7.0443111761255784e-05  7.0459994690769717e-05  7.0466732994646465e-05  7.0463196171732334e-05  7.0450234234234200e-05  7.0429607897798857e-05  7.0403746652939248e-05  7.0375309667722471e-05  7.0346713197349397e-05  7.0319805623764452e-05  7.0295750321503853e-05  7.0275082642469068e-05  7.0257861559258915e-05  7.0243841409306607e-05  7.0232619907768321e-05  7.0223745668904669e-05  7.0216784531293452e-05  7.0211352820166511e-05  7.0207128518240836e-05  7.0203849912998736e-05  7.0201308454209644e-05  7.0199339899048723e-05  7.0197815795736024e-05  7.0196636098925910e-05  7.0195723087006492e-05  7.0195016483195561e-05  7.0194469592928547e-05  7.0194046268922950e-05  7.0193718540128151e-05  7.0193464767011102e-05  7.0193268210403008e-05  7.0193115922934972e-05  7.0192997890657552e-05  7.0192906368350580e-05  7.0192835364983711e-05  7.0192780245756386e-05  7.0192737424721379e-05  7.0192704127713921e-05  7.0192678209671740e-05  7.0192658013809857e-05  7.0192642262747456e-05  7.0192629973802258e-05  7.0192620392426405e-05  7.0192612939312690e-05  7.0192607168090892e-05  7.0192602731690887e-05  7.0192599356242515e-05  7.0192596821721867e-05  7.0192594948478756e-05  7.0192593588496805e-05  7.0192592619985319e-05  7.0192591943912610e-05  7.0192591481373504e-05  7.0192591171104374e-05  7.0192590966885150e-05  7.0192590834857637e-05  7.0192590750922757e-05  7.0192590698387876e-05  7.0192590665977902e-05  7.0192590646250288e-05  7.0192590634392219e-05  7.0192590627351248e-05  7.0192590623226347e-05  7.0192590620854654e-05  7.0192590619544206e-05  7.0192590618904947e-05  1.4038519926190464e-04  1.4038519931972187e-04  7.0192590653146803e-05  7.0192590677556991e-05  7.0192590729280442e-05  7.0192590830728697e-05  7.0192591024357325e-05  7.0192591388328955e-05  7.0192592063967970e-05  7.0192593302819358e-05  7.0192595545771167e-05  7.0192599553775911e-05  7.0192606620678204e-05  7.0192618916559734e-05  7.0192640041642253e-05  7.0192675931536025e-05  7.0192736377655774e-05  7.0192837677959246e-05  7.0193007430436824e-05  7.0193293403577743e-05  7.0193779965755079e-05  7.0194617789671524e-05  7.0196074983361077e-05  7.0198618676282318e-05  7.0203031496640438e-05  7.0210551056262830e-05  7.0222986240969676e-05  7.0242712844223248e-05  7.0272404681014889e-05  7.0314372605196485e-05  7.0369546508474465e-05  7.0436462240499364e-05  7.0510781969644284e-05  7.0585664012376932e-05  7.0653093865762171e-05  7.0705835336554317e-05  7.0739012716684261e-05  7.0750488892357992e-05  7.0740329175061954e-05  7.0710534142831479e-05  7.0665112929455773e-05  7.0609562825667949e-05  7.0549759718745695e-05  7.0490815393216865e-05  7.0436404044598466e-05  7.0388618774808279e-05  7.0348214011999458e-05  7.0315010338951937e-05  7.0288288217956610e-05  7.0267094925702603e-05  7.0250449512217772e-05  7.0237456220760848e-05  7.0227351161841756e-05  7.0219509165684292e-05  7.0213430986671549e-05  7.0208723394066168e-05  7.0205078956038020e-05  7.0202258306857338e-05  7.0200075517298590e-05  7.0198386386313564e-05  7.0197079204697250e-05  7.0196067502659905e-05  7.0195284376803899e-05  7.0194678073317655e-05  7.0194208560645749e-05  7.0193844875793632e-05  7.0193563071548572e-05  7.0193344627660838e-05  7.0193175220417667e-05  7.0193043770136099e-05  7.0192941704650316e-05  7.0192862390788401e-05  7.0192800696301642e-05  7.0192752652660934e-05  7.0192715195346408e-05  7.0192685963123795e-05  7.0192663141681685e-05  7.0192645340272995e-05  7.0192631493007674e-05  7.0192620779250671e-05  7.0192612559963780e-05  7.0192606328412278e-05  7.0192601674177869e-05  7.0192598258966843e-05  7.0192595801800320e-05  7.0192594070493517e-05  7.0192592876379753e-05  7.0192592069982676e-05  7.0192591536391357e-05  7.0192591190049153e-05  7.0192590969244388e-05  7.0192590830786038e-05  7.0192590745274375e-05  7.0192590693194751e-05  7.0192590661883060e-05  7.0192590643283246e-05  7.0192590632363718e-05  7.0192590626035311e-05  7.0192590622433822e-05  7.0192590620462973e-05  7.0192590619511572e-05  1.4038519926280215e-04  1.4038519935621917e-04  7.0192590674863196e-05  7.0192590715675249e-05  7.0192590802960626e-05  7.0192590976212162e-05  7.0192591311209830e-05  7.0192591949422200e-05  7.0192593150235859e-05  7.0192595381613282e-05  7.0192599474083907e-05  7.0192606876761458e-05  7.0192620074330296e-05  7.0192643254547184e-05  7.0192683366170652e-05  7.0192751801552769e-05  7.0192867135741990e-05  7.0193059788245383e-05  7.0193380413393600e-05  7.0193915742119704e-05  7.0194819165102056e-05  7.0196369176312733e-05  7.0199076550501205e-05  7.0203867577238856e-05  7.0212366692962112e-05  7.0227270032207549e-05  7.0252719149831432e-05  7.0294440212051546e-05  7.0359245692750401e-05  7.0453454133510891e-05  7.0580165365496570e-05  7.0736405802959752e-05  7.0911716675592460e-05  7.1088917310637125e-05  7.1247593890758475e-05  7.1369677379121667e-05  7.1443905903112209e-05  7.1466256352535685e-05  7.1437460062998020e-05  7.1362406167706767e-05  7.1251237430142305e-05  7.1117976638140372e-05  7.0977261862984538e-05  7.0841214429325406e-05  7.0717952877047470e-05  7.0611558765775164e-05  7.0522966088400291e-05  7.0451107936334343e-05  7.0393890341941370e-05  7.0348882834394996e-05  7.0313743922686584e-05  7.0286426795779596e-05  7.0265238474556365e-05  7.0248822872308184e-05  7.0236112785448363e-05  7.0226275338767602e-05  7.0218662930258917e-05  7.0212772983165863e-05  7.0208215883606797e-05  7.0204689840079409e-05  7.0201961284583429e-05  7.0199849550415974e-05  7.0198214917758199e-05  7.0196949335880432e-05  7.0195969241071559e-05  7.0195210006119226e-05  7.0194621652331946e-05  7.0194165531139928e-05  7.0193811753346477e-05  7.0193537199007036e-05  7.0193323979102386e-05  7.0193158248930734e-05  7.0193029294764799e-05  7.0192928831629389e-05  7.0192850463022836e-05  7.0192789263580688e-05  7.0192741453639461e-05  7.0192704141441845e-05  7.0192675115258194e-05  7.0192652674138444e-05  7.0192635491626086e-05  7.0192622510403558e-05  7.0192612866686269e-05  7.0192605841450177e-05  7.0192600832726435e-05  7.0192597341240092e-05  7.0192594961901138e-05  7.0192593375829125e-05  7.0192592340455936e-05  7.0192591677617093e-05  7.0192591260795188e-05  7.0192591002913676e-05  7.0192590845708779e-05  7.0192590751159398e-05  7.0192590694994418e-05  7.0192590662015617e-05  7.0192590642869325e-05  7.0192590631890775e-05  7.0192590625705361e-05  7.0192590622350907e-05  7.0192590620744418e-05  1.4038519926470194e-04  1.4038519941859208e-04  7.0192590712467461e-05  7.0192590782381493e-05  7.0192590933370916e-05  7.0192591236628281e-05  7.0192591830578612e-05  7.0192592977330576e-05  7.0192595164492364e-05  7.0192599284543792e-05  7.0192606943649292e-05  7.0192620980635235e-05  7.0192646317487033e-05  7.0192691319093776e-05  7.0192769922167411e-05  7.0192904933266540e-05  7.0193133188583843e-05  7.0193513962404927e-05  7.0194143679605972e-05  7.0195183778301918e-05  7.0196916422043262e-05  7.0199857166556521e-05  7.0204975987061101e-05  7.0214103707592321e-05  7.0230610354906831e-05  7.0260390170825114e-05  7.0313003622114547e-05  7.0402443997519585e-05  7.0546438043170068e-05  7.0762788553661724e-05  7.1061947559081806e-05  7.1438692817850442e-05  7.1867792595824430e-05  7.2304859311488900e-05  7.2695204022026847e-05  7.2990773969508089e-05  7.3164184594356002e-05  7.3208533574912221e-05  7.3126591668622290e-05  7.2930059768941513e-05  7.2646273922946522e-05  7.2313388206389896e-05  7.1969764030928912e-05  7.1644977283188518e-05  7.1356994168412442e-05  7.1113196934709664e-05  7.0913534934381435e-05  7.0753792053957203e-05  7.0627963936859925e-05  7.0529775874224516e-05  7.0453540985456259e-05  7.0394491624749025e-05  7.0348795971150941e-05  7.0313444305149857e-05  7.0286098308012011e-05  7.0264946632303229e-05  7.0248586693340335e-05  7.0235932836454668e-05  7.0226144821148822e-05  7.0218572571734692e-05  7.0212713503120245e-05  7.0208179183838885e-05  7.0204669374782064e-05  7.0201951966549712e-05  7.0199847487499906e-05  7.0198217155510812e-05  7.0196953662312684e-05  7.0195974039794339e-05  7.0195214130474665e-05  7.0194624307889523e-05  7.0194166170306260e-05  7.0193809992720354e-05  7.0193532768219539e-05  7.0193316704006848e-05  7.0193148065608138e-05  7.0193016284810452e-05  7.0192913263435940e-05  7.0192832819328428e-05  7.0192770235576594e-05  7.0192721889380096e-05  7.0192684950794726e-05  7.0192657150348808e-05  7.0192636615722128e-05  7.0192621771776936e-05  7.0192611289442616e-05  7.0192604063370703e-05  7.0192599199385918e-05  7.0192595999254189e-05  7.0192593938181536e-05  7.0192592636355688e-05  7.0192591828448290e-05  7.0192591334938801e-05  7.0192591037741435e-05  7.0192590861061313e-05  7.0192590757266898e-05  7.0192590696966894e-05  7.0192590662316700e-05  7.0192590642643350e-05  7.0192590631662171e-05  7.0192590625755980e-05  7.0192590622944915e-05  1.4038519926811344e-04  1.4038519952099562e-04  7.0192590774849445e-05  7.0192590894368898e-05  7.0192591155082549e-05  7.0192591684901251e-05  7.0192592735945688e-05  7.0192594792631944e-05  7.0192598769911523e-05  7.0192606368500423e-05  7.0192620696640280e-05  7.0192647330858101e-05  7.0192696075298334e-05  7.0192783792104944e-05  7.0192938816334251e-05  7.0193207661858639e-05  7.0193665086715041e-05  7.0194429517293801e-05  7.0195688430640634e-05  7.0197745118559713e-05  7.0201114336586288e-05  7.0206727697592260e-05  7.0216368927581769e-05  7.0233543198367922e-05  7.0265058542760787e-05  7.0323554557526931e-05  7.0430854209275161e-05  7.0621094556142010e-05  7.0940923186679007e-05  7.1442054498866721e-05  7.2161192011593639e-05  7.3095105324752125e-05  7.4186547064046554e-05  7.5319120210289180e-05  7.6336142247161433e-05  7.7096206043385175e-05  7.7525277452801782e-05  7.7614630044612733e-05  7.7371673602503137e-05  7.6823548868201736e-05  7.6053685553253378e-05  7.5177089301939950e-05  7.4301189658066005e-05  7.3499174223868075e-05  7.2808597606624395e-05  7.2238638548070372e-05  7.1781513304903759e-05  7.1421842027437487e-05  7.1142137691959604e-05  7.0925863170783889e-05  7.0758978346982762e-05  7.0630238048767513e-05  7.0530873769391372e-05  7.0454136761906121e-05  7.0394852509343816e-05  7.0349041278383679e-05  7.0313634193648378e-05  7.0286263405716968e-05  7.0265100391681654e-05  7.0248732903174452e-05  7.0236070963526433e-05  7.0226273246108020e-05  7.0218689952754283e-05  7.0212819015477018e-05  7.0208272369428324e-05  7.0204750014239538e-05  7.0202020059812199e-05  7.0199903267709933e-05  7.0198261061891608e-05  7.0196986258770036e-05  7.0195995911900692e-05  7.0195225804633619e-05  7.0194626224061077e-05  7.0194158720510177e-05  7.0193793620538464e-05  7.0193508109834179e-05  7.0193284736088450e-05  7.0193110211478056e-05  7.0192974427598067e-05  7.0192869633336501e-05  7.0192789761139890e-05  7.0192729908789356e-05  7.0192685984710098e-05  7.0192654505787385e-05  7.0192632509882965e-05  7.0192617529554424e-05  7.0192607578380316e-05  7.0192601120975311e-05  7.0192597019523860e-05  7.0192594464106556e-05  7.0192592898936064e-05  7.0192591954707482e-05  7.0192591392735071e-05  7.0192591062341223e-05  7.0192590870282398e-05  7.0192590759828936e-05  7.0192590696978183e-05  7.0192590661630536e-05  7.0192590642077952e-05  7.0192590631645800e-05  7.0192590626708208e-05  1.4038519927394146e-04  1.4038519968466180e-04  7.0192590875529787e-05  7.0192591077417136e-05  7.0192591522303424e-05  7.0192592437130666e-05  7.0192594275531205e-05  7.0192597922364406e-05  7.0192605075707754e-05  7.0192618944381785e-05  7.0192645492493124e-05  7.0192695603162102e-05  7.0192788730300603e-05  7.0192958855776484e-05  7.0193263842607020e-05  7.0193799533784350e-05  7.0194720234808262e-05  7.0196268002641689e-05  7.0198816239253712e-05  7.0202943542678738e-05  7.0209583403247266e-05  7.0220366693488266e-05  7.0238420036891933e-05  7.0270129595121787e-05  7.0328685728564597e-05  7.0440372005495158e-05  7.0654064258245810e-05  7.1052618698934516e-05  7.1760686960254907e-05  7.2936221504324127e-05  7.4720125027192852e-05  7.7161456872708003e-05  8.0168549865682970e-05  8.3442852430331486e-05  8.6473775099191126e-05  8.8742584225502867e-05  8.9980396069975769e-05  9.0185236838412819e-05  8.9363674241298377e-05  8.7575580592400302e-05  8.5159456778544299e-05  8.2550654464114956e-05  8.0091999741602698e-05  7.7959766927730961e-05  7.6209883179347758e-05  7.4821807546611714e-05  7.3742827742250312e-05  7.2914281462739577e-05  7.2281616694587887e-05  7.1798660007592097e-05  7.1429238678658757e-05  7.1145967646201404e-05  7.0928248044813810e-05  7.0760616086091628e-05  7.0631414743813778e-05  7.0531761360106829e-05  7.0454850234442489e-05  7.0395461423442850e-05  7.0349580681703798e-05  7.0314117845358246e-05  7.0286695738718059e-05  7.0265483712252482e-05  7.0249069854730545e-05  7.0236364500360379e-05  7.0226526090564695e-05  7.0218904441181234e-05  7.0212997321618056e-05  7.0208416755550103e-05  7.0204862885840045e-05  7.0202103823407340e-05  7.0199960113227484e-05  7.0198292799706431e-05  7.0196994291951131e-05  7.0195981369721274e-05  7.0195189823986392e-05  7.0194570334135658e-05  7.0194085248215333e-05  7.0193705992030350e-05  7.0193410908957126e-05  7.0193183426670619e-05  7.0193010537409782e-05  7.0192881633372720e-05  7.0192787736295662e-05  7.0192721100631594e-05  7.0192675088269705e-05  7.0192644169291701e-05  7.0192623923582851e-05  7.0192610978184869e-05  7.0192602874824127e-05  7.0192597896276402e-05  7.0192594886994884e-05  7.0192593093817759e-05  7.0192592038769295e-05  7.0192591425133024e-05  7.0192591072055011e-05  7.0192590870991967e-05  7.0192590757678610e-05  7.0192590694548472e-05  7.0192590659943436e-05  7.0192590641629621e-05  7.0192590633009577e-05  1.4038519928366930e-04  1.4038519994028382e-04  7.0192591034307712e-05  7.0192591369862240e-05  7.0192592116936274e-05  7.0192593671541595e-05  7.0192596836687218e-05  7.0192603203267752e-05  7.0192615875148157e-05  7.0192640820405171e-05  7.0192689334286506e-05  7.0192782416658841e-05  7.0192958325027415e-05  7.0193285155797436e-05  7.0193880936522782e-05  7.0194944142530080e-05  7.0196797442145944e-05  7.0199946842532679e-05  7.0205159299169256e-05  7.0213572805060179e-05  7.0226898580236642e-05  7.0247911709097358e-05  7.0281758001812468e-05  7.0339265209054159e-05  7.0444479297811636e-05  7.0649713204764948e-05  7.1061521184535785e-05  7.1879526069188205e-05  7.3444644365486611e-05  7.6280157598969975e-05  8.1017160735454054e-05  8.8224401803166098e-05  9.8307504364232256e-05  1.1098300415243570e-04  1.2433705700858500e-04  1.3511350462834163e-04  1.4103077924685953e-04  1.4195125729989146e-04  1.3764614389339064e-04  1.2831318245523982e-04  1.1672433936009739e-04  1.0577495661404341e-04  9.6830488535386969e-05  8.9967499989458962e-05  8.4870595614157583e-05  8.1128702069850674e-05  7.8384196362166111e-05  7.6366818079263152e-05  7.4875134768511635e-05  7.3761696603289348e-05  7.2923329365617848e-05  7.2287801713547120e-05  7.1803424967503479e-05  7.1432835078130943e-05  7.1148639199566165e-05  7.0930300832324207e-05  7.0762295573621796e-05  7.0632868669405203e-05  7.0533057684460382e-05  7.0456010542423059e-05  7.0396491565815188e-05  7.0350486619715649e-05  7.0314908472442799e-05  7.0287380586645735e-05  7.0266070831261410e-05  7.0249565626041445e-05  7.0236774635059463e-05  7.0226856500918856e-05  7.0219161391013360e-05  7.0213186989950881e-05  7.0208544626382881e-05  7.0204933324204930e-05  7.0202120022750923e-05  7.0199924453049955e-05  7.0198207571066043e-05  7.0196862691476907e-05  7.0195808570383433e-05  7.0194983800628892e-05  7.0194342059783302e-05  7.0193847993391988e-05  7.0193473755006955e-05  7.0193196367076866e-05  7.0192996050024505e-05  7.0192855483850231e-05  7.0192759716958771e-05  7.0192696318615989e-05  7.0192655452128630e-05  7.0192629729754584e-05  7.0192613871512781e-05  7.0192604266700203e-05  7.0192598537095207e-05  7.0192595163954410e-05  7.0192593201314385e-05  7.0192592071663650e-05  7.0192591428131900e-05  7.0192591065217164e-05  7.0192590862649777e-05  7.0192590750867788e-05  7.0192590690162156e-05  7.0192590658305084e-05  7.0192590643397101e-05  1.4038519929964155e-04  1.4038520033060725e-04  7.0192591279120400e-05  7.0192591826647254e-05  7.0192593058283006e-05  7.0192595652001066e-05  7.0192601002656884e-05  7.0192611917818088e-05  7.0192633968937576e-05  7.0192678063853704e-05  7.0192765244632942e-05  7.0192935425750268e-05  7.0193262864512259e-05  7.0193882624061197e-05  7.0195033951359087e-05  7.0197127654729187e-05  7.0200843739188677e-05  7.0207260642742781e-05  7.0218008009496398e-05  7.0235430845605999e-05  7.0262796983766864e-05  7.0304796415046009e-05  7.03692526273