<?xml version="1.0"?>
<VTKFile type="UnstructuredGrid"  version="0.1"  >
<UnstructuredGrid>
<Piece  NumberOfPoints="5151" NumberOfCells="10000">
<Points>
<DataArray  type="Float64"  NumberOfComponents="3"  format="ascii">0 0 0  0.02 0 0  0.04 0 0  0.06 0 0  0.08 0 0  0.1 0 0  0.12 0 0  0.14 0 0  0.16 0 0  0.18 0 0  0.2 0 0  0.22 0 0  0.24 0 0  0.26 0 0  0.28 0 0  0.3 0 0  0.32 0 0  0.34 0 0  0.36 0 0  0.38 0 0  0.4 0 0  0.42 0 0  0.44 0 0  0.46 0 0  0.48 0 0  0.5 0 0  0.52 0 0  0.54 0 0  0.5600000000000001 0 0  0.58 0 0  0.6 0 0  0.62 0 0  0.64 0 0  0.66 0 0  0.68 0 0  0.7 0 0  0.72 0 0  0.74 0 0  0.76 0 0  0.78 0 0  0.8 0 0  0.82 0 0  0.84 0 0  0.86 0 0  0.88 0 0  0.9 0 0  0.92 0 0  0.9399999999999999 0 0  0.96 0 0  0.98 0 0  1 0 0  1.02 0 0  1.04 0 0  1.06 0 0  1.08 0 0  1.1 0 0  1.12 0 0  1.14 0 0  1.16 0 0  1.18 0 0  1.2 0 0  1.22 0 0  1.24 0 0  1.26 0 0  1.28 0 0  1.3 0 0  1.32 0 0  1.34 0 0  1.36 0 0  1.38 0 0  1.4 0 0  1.42 0 0  1.44 0 0  1.46 0 0  1.48 0 0  1.5 0 0  1.52 0 0  1.54 0 0  1.56 0 0  1.58 0 0  1.6 0 0  1.62 0 0  1.64 0 0  1.66 0 0  1.68 0 0  1.7 0 0  1.72 0 0  1.74 0 0  1.76 0 0  1.78 0 0  1.8 0 0  1.82 0 0  1.84 0 0  1.86 0 0  1.88 0 0  1.9 0 0  1.92 0 0  1.94 0 0  1.96 0 0  1.98 0 0  2 0 0  0 0.02 0  0.02 0.02 0  0.04 0.02 0  0.06 0.02 0  0.08 0.02 0  0.1 0.02 0  0.12 0.02 0  0.14 0.02 0  0.16 0.02 0  0.18 0.02 0  0.2 0.02 0  0.22 0.02 0  0.24 0.02 0  0.26 0.02 0  0.28 0.02 0  0.3 0.02 0  0.32 0.02 0  0.34 0.02 0  0.36 0.02 0  0.38 0.02 0  0.4 0.02 0  0.42 0.02 0  0.44 0.02 0  0.46 0.02 0  0.48 0.02 0  0.5 0.02 0  0.52 0.02 0  0.54 0.02 0  0.5600000000000001 0.02 0  0.58 0.02 0  0.6 0.02 0  0.62 0.02 0  0.64 0.02 0  0.66 0.02 0  0.68 0.02 0  0.7 0.02 0  0.72 0.02 0  0.74 0.02 0  0.76 0.02 0  0.78 0.02 0  0.8 0.02 0  0.82 0.02 0  0.84 0.02 0  0.86 0.02 0  0.88 0.02 0  0.9 0.02 0  0.92 0.02 0  0.9399999999999999 0.02 0  0.96 0.02 0  0.98 0.02 0  1 0.02 0  1.02 0.02 0  1.04 0.02 0  1.06 0.02 0  1.08 0.02 0  1.1 0.02 0  1.12 0.02 0  1.14 0.02 0  1.16 0.02 0  1.18 0.02 0  1.2 0.02 0  1.22 0.02 0  1.24 0.02 0  1.26 0.02 0  1.28 0.02 0  1.3 0.02 0  1.32 0.02 0  1.34 0.02 0  1.36 0.02 0  1.38 0.02 0  1.4 0.02 0  1.42 0.02 0  1.44 0.02 0  1.46 0.02 0  1.48 0.02 0  1.5 0.02 0  1.52 0.02 0  1.54 0.02 0  1.56 0.02 0  1.58 0.02 0  1.6 0.02 0  1.62 0.02 0  1.64 0.02 0  1.66 0.02 0  1.68 0.02 0  1.7 0.02 0  1.72 0.02 0  1.74 0.02 0  1.76 0.02 0  1.78 0.02 0  1.8 0.02 0  1.82 0.02 0  1.84 0.02 0  1.86 0.02 0  1.88 0.02 0  1.9 0.02 0  1.92 0.02 0  1.94 0.02 0  1.96 0.02 0  1.98 0.02 0  2 0.02 0  0 0.04 0  0.02 0.04 0  0.04 0.04 0  0.06 0.04 0  0.08 0.04 0  0.1 0.04 0  0.12 0.04 0  0.14 0.04 0  0.16 0.04 0  0.18 0.04 0  0.2 0.04 0  0.22 0.04 0  0.24 0.04 0  0.26 0.04 0  0.28 0.04 0  0.3 0.04 0  0.32 0.04 0  0.34 0.04 0  0.36 0.04 0  0.38 0.04 0  0.4 0.04 0  0.42 0.04 0  0.44 0.04 0  0.46 0.04 0  0.48 0.04 0  0.5 0.04 0  0.52 0.04 0  0.54 0.04 0  0.5600000000000001 0.04 0  0.58 0.04 0  0.6 0.04 0  0.62 0.04 0  0.64 0.04 0  0.66 0.04 0  0.68 0.04 0  0.7 0.04 0  0.72 0.04 0  0.74 0.04 0  0.76 0.04 0  0.78 0.04 0  0.8 0.04 0  0.82 0.04 0  0.84 0.04 0  0.86 0.04 0  0.88 0.04 0  0.9 0.04 0  0.92 0.04 0  0.9399999999999999 0.04 0  0.96 0.04 0  0.98 0.04 0  1 0.04 0  1.02 0.04 0  1.04 0.04 0  1.06 0.04 0  1.08 0.04 0  1.1 0.04 0  1.12 0.04 0  1.14 0.04 0  1.16 0.04 0  1.18 0.04 0  1.2 0.04 0  1.22 0.04 0  1.24 0.04 0  1.26 0.04 0  1.28 0.04 0  1.3 0.04 0  1.32 0.04 0  1.34 0.04 0  1.36 0.04 0  1.38 0.04 0  1.4 0.04 0  1.42 0.04 0  1.44 0.04 0  1.46 0.04 0  1.48 0.04 0  1.5 0.04 0  1.52 0.04 0  1.54 0.04 0  1.56 0.04 0  1.58 0.04 0  1.6 0.04 0  1.62 0.04 0  1.64 0.04 0  1.66 0.04 0  1.68 0.04 0  1.7 0.04 0  1.72 0.04 0  1.74 0.04 0  1.76 0.04 0  1.78 0.04 0  1.8 0.04 0  1.82 0.04 0  1.84 0.04 0  1.86 0.04 0  1.88 0.04 0  1.9 0.04 0  1.92 0.04 0  1.94 0.04 0  1.96 0.04 0  1.98 0.04 0  2 0.04 0  0 0.06 0  0.02 0.06 0  0.04 0.06 0  0.06 0.06 0  0.08 0.06 0  0.1 0.06 0  0.12 0.06 0  0.14 0.06 0  0.16 0.06 0  0.18 0.06 0  0.2 0.06 0  0.22 0.06 0  0.24 0.06 0  0.26 0.06 0  0.28 0.06 0  0.3 0.06 0  0.32 0.06 0  0.34 0.06 0  0.36 0.06 0  0.38 0.06 0  0.4 0.06 0  0.42 0.06 0  0.44 0.06 0  0.46 0.06 0  0.48 0.06 0  0.5 0.06 0  0.52 0.06 0  0.54 0.06 0  0.5600000000000001 0.06 0  0.58 0.06 0  0.6 0.06 0  0.62 0.06 0  0.64 0.06 0  0.66 0.06 0  0.68 0.06 0  0.7 0.06 0  0.72 0.06 0  0.74 0.06 0  0.76 0.06 0  0.78 0.06 0  0.8 0.06 0  0.82 0.06 0  0.84 0.06 0  0.86 0.06 0  0.88 0.06 0  0.9 0.06 0  0.92 0.06 0  0.9399999999999999 0.06 0  0.96 0.06 0  0.98 0.06 0  1 0.06 0  1.02 0.06 0  1.04 0.06 0  1.06 0.06 0  1.08 0.06 0  1.1 0.06 0  1.12 0.06 0  1.14 0.06 0  1.16 0.06 0  1.18 0.06 0  1.2 0.06 0  1.22 0.06 0  1.24 0.06 0  1.26 0.06 0  1.28 0.06 0  1.3 0.06 0  1.32 0.06 0  1.34 0.06 0  1.36 0.06 0  1.38 0.06 0  1.4 0.06 0  1.42 0.06 0  1.44 0.06 0  1.46 0.06 0  1.48 0.06 0  1.5 0.06 0  1.52 0.06 0  1.54 0.06 0  1.56 0.06 0  1.58 0.06 0  1.6 0.06 0  1.62 0.06 0  1.64 0.06 0  1.66 0.06 0  1.68 0.06 0  1.7 0.06 0  1.72 0.06 0  1.74 0.06 0  1.76 0.06 0  1.78 0.06 0  1.8 0.06 0  1.82 0.06 0  1.84 0.06 0  1.86 0.06 0  1.88 0.06 0  1.9 0.06 0  1.92 0.06 0  1.94 0.06 0  1.96 0.06 0  1.98 0.06 0  2 0.06 0  0 0.08 0  0.02 0.08 0  0.04 0.08 0  0.06 0.08 0  0.08 0.08 0  0.1 0.08 0  0.12 0.08 0  0.14 0.08 0  0.16 0.08 0  0.18 0.08 0  0.2 0.08 0  0.22 0.08 0  0.24 0.08 0  0.26 0.08 0  0.28 0.08 0  0.3 0.08 0  0.32 0.08 0  0.34 0.08 0  0.36 0.08 0  0.38 0.08 0  0.4 0.08 0  0.42 0.08 0  0.44 0.08 0  0.46 0.08 0  0.48 0.08 0  0.5 0.08 0  0.52 0.08 0  0.54 0.08 0  0.5600000000000001 0.08 0  0.58 0.08 0  0.6 0.08 0  0.62 0.08 0  0.64 0.08 0  0.66 0.08 0  0.68 0.08 0  0.7 0.08 0  0.72 0.08 0  0.74 0.08 0  0.76 0.08 0  0.78 0.08 0  0.8 0.08 0  0.82 0.08 0  0.84 0.08 0  0.86 0.08 0  0.88 0.08 0  0.9 0.08 0  0.92 0.08 0  0.9399999999999999 0.08 0  0.96 0.08 0  0.98 0.08 0  1 0.08 0  1.02 0.08 0  1.04 0.08 0  1.06 0.08 0  1.08 0.08 0  1.1 0.08 0  1.12 0.08 0  1.14 0.08 0  1.16 0.08 0  1.18 0.08 0  1.2 0.08 0  1.22 0.08 0  1.24 0.08 0  1.26 0.08 0  1.28 0.08 0  1.3 0.08 0  1.32 0.08 0  1.34 0.08 0  1.36 0.08 0  1.38 0.08 0  1.4 0.08 0  1.42 0.08 0  1.44 0.08 0  1.46 0.08 0  1.48 0.08 0  1.5 0.08 0  1.52 0.08 0  1.54 0.08 0  1.56 0.08 0  1.58 0.08 0  1.6 0.08 0  1.62 0.08 0  1.64 0.08 0  1.66 0.08 0  1.68 0.08 0  1.7 0.08 0  1.72 0.08 0  1.74 0.08 0  1.76 0.08 0  1.78 0.08 0  1.8 0.08 0  1.82 0.08 0  1.84 0.08 0  1.86 0.08 0  1.88 0.08 0  1.9 0.08 0  1.92 0.08 0  1.94 0.08 0  1.96 0.08 0  1.98 0.08 0  2 0.08 0  0 0.1 0  0.02 0.1 0  0.04 0.1 0  0.06 0.1 0  0.08 0.1 0  0.1 0.1 0  0.12 0.1 0  0.14 0.1 0  0.16 0.1 0  0.18 0.1 0  0.2 0.1 0  0.22 0.1 0  0.24 0.1 0  0.26 0.1 0  0.28 0.1 0  0.3 0.1 0  0.32 0.1 0  0.34 0.1 0  0.36 0.1 0  0.38 0.1 0  0.4 0.1 0  0.42 0.1 0  0.44 0.1 0  0.46 0.1 0  0.48 0.1 0  0.5 0.1 0  0.52 0.1 0  0.54 0.1 0  0.5600000000000001 0.1 0  0.58 0.1 0  0.6 0.1 0  0.62 0.1 0  0.64 0.1 0  0.66 0.1 0  0.68 0.1 0  0.7 0.1 0  0.72 0.1 0  0.74 0.1 0  0.76 0.1 0  0.78 0.1 0  0.8 0.1 0  0.82 0.1 0  0.84 0.1 0  0.86 0.1 0  0.88 0.1 0  0.9 0.1 0  0.92 0.1 0  0.9399999999999999 0.1 0  0.96 0.1 0  0.98 0.1 0  1 0.1 0  1.02 0.1 0  1.04 0.1 0  1.06 0.1 0  1.08 0.1 0  1.1 0.1 0  1.12 0.1 0  1.14 0.1 0  1.16 0.1 0  1.18 0.1 0  1.2 0.1 0  1.22 0.1 0  1.24 0.1 0  1.26 0.1 0  1.28 0.1 0  1.3 0.1 0  1.32 0.1 0  1.34 0.1 0  1.36 0.1 0  1.38 0.1 0  1.4 0.1 0  1.42 0.1 0  1.44 0.1 0  1.46 0.1 0  1.48 0.1 0  1.5 0.1 0  1.52 0.1 0  1.54 0.1 0  1.56 0.1 0  1.58 0.1 0  1.6 0.1 0  1.62 0.1 0  1.64 0.1 0  1.66 0.1 0  1.68 0.1 0  1.7 0.1 0  1.72 0.1 0  1.74 0.1 0  1.76 0.1 0  1.78 0.1 0  1.8 0.1 0  1.82 0.1 0  1.84 0.1 0  1.86 0.1 0  1.88 0.1 0  1.9 0.1 0  1.92 0.1 0  1.94 0.1 0  1.96 0.1 0  1.98 0.1 0  2 0.1 0  0 0.12 0  0.02 0.12 0  0.04 0.12 0  0.06 0.12 0  0.08 0.12 0  0.1 0.12 0  0.12 0.12 0  0.14 0.12 0  0.16 0.12 0  0.18 0.12 0  0.2 0.12 0  0.22 0.12 0  0.24 0.12 0  0.26 0.12 0  0.28 0.12 0  0.3 0.12 0  0.32 0.12 0  0.34 0.12 0  0.36 0.12 0  0.38 0.12 0  0.4 0.12 0  0.42 0.12 0  0.44 0.12 0  0.46 0.12 0  0.48 0.12 0  0.5 0.12 0  0.52 0.12 0  0.54 0.12 0  0.5600000000000001 0.12 0  0.58 0.12 0  0.6 0.12 0  0.62 0.12 0  0.64 0.12 0  0.66 0.12 0  0.68 0.12 0  0.7 0.12 0  0.72 0.12 0  0.74 0.12 0  0.76 0.12 0  0.78 0.12 0  0.8 0.12 0  0.82 0.12 0  0.84 0.12 0  0.86 0.12 0  0.88 0.12 0  0.9 0.12 0  0.92 0.12 0  0.9399999999999999 0.12 0  0.96 0.12 0  0.98 0.12 0  1 0.12 0  1.02 0.12 0  1.04 0.12 0  1.06 0.12 0  1.08 0.12 0  1.1 0.12 0  1.12 0.12 0  1.14 0.12 0  1.16 0.12 0  1.18 0.12 0  1.2 0.12 0  1.22 0.12 0  1.24 0.12 0  1.26 0.12 0  1.28 0.12 0  1.3 0.12 0  1.32 0.12 0  1.34 0.12 0  1.36 0.12 0  1.38 0.12 0  1.4 0.12 0  1.42 0.12 0  1.44 0.12 0  1.46 0.12 0  1.48 0.12 0  1.5 0.12 0  1.52 0.12 0  1.54 0.12 0  1.56 0.12 0  1.58 0.12 0  1.6 0.12 0  1.62 0.12 0  1.64 0.12 0  1.66 0.12 0  1.68 0.12 0  1.7 0.12 0  1.72 0.12 0  1.74 0.12 0  1.76 0.12 0  1.78 0.12 0  1.8 0.12 0  1.82 0.12 0  1.84 0.12 0  1.86 0.12 0  1.88 0.12 0  1.9 0.12 0  1.92 0.12 0  1.94 0.12 0  1.96 0.12 0  1.98 0.12 0  2 0.12 0  0 0.14 0  0.02 0.14 0  0.04 0.14 0  0.06 0.14 0  0.08 0.14 0  0.1 0.14 0  0.12 0.14 0  0.14 0.14 0  0.16 0.14 0  0.18 0.14 0  0.2 0.14 0  0.22 0.14 0  0.24 0.14 0  0.26 0.14 0  0.28 0.14 0  0.3 0.14 0  0.32 0.14 0  0.34 0.14 0  0.36 0.14 0  0.38 0.14 0  0.4 0.14 0  0.42 0.14 0  0.44 0.14 0  0.46 0.14 0  0.48 0.14 0  0.5 0.14 0  0.52 0.14 0  0.54 0.14 0  0.5600000000000001 0.14 0  0.58 0.14 0  0.6 0.14 0  0.62 0.14 0  0.64 0.14 0  0.66 0.14 0  0.68 0.14 0  0.7 0.14 0  0.72 0.14 0  0.74 0.14 0  0.76 0.14 0  0.78 0.14 0  0.8 0.14 0  0.82 0.14 0  0.84 0.14 0  0.86 0.14 0  0.88 0.14 0  0.9 0.14 0  0.92 0.14 0  0.9399999999999999 0.14 0  0.96 0.14 0  0.98 0.14 0  1 0.14 0  1.02 0.14 0  1.04 0.14 0  1.06 0.14 0  1.08 0.14 0  1.1 0.14 0  1.12 0.14 0  1.14 0.14 0  1.16 0.14 0  1.18 0.14 0  1.2 0.14 0  1.22 0.14 0  1.24 0.14 0  1.26 0.14 0  1.28 0.14 0  1.3 0.14 0  1.32 0.14 0  1.34 0.14 0  1.36 0.14 0  1.38 0.14 0  1.4 0.14 0  1.42 0.14 0  1.44 0.14 0  1.46 0.14 0  1.48 0.14 0  1
[...]
<PointData  Scalars="sols[i]"> 
<DataArray  type="Float64"  Name="sols[i]"  format="ascii">5.0052386345217905e-03  3.3424457834491054e-03  3.3424457834491717e-03  3.3424457834492841e-03  3.3424457834494623e-03  3.3424457834497277e-03  3.3424457834501028e-03  3.3424457834506298e-03  3.3424457834513449e-03  3.3424457834522947e-03  3.3424457834535489e-03  3.3424457834551752e-03  3.3424457834572564e-03  3.3424457834599001e-03  3.3424457834632317e-03  3.3424457834673729e-03  3.3424457834724951e-03  3.3424457834787991e-03  3.3424457834864939e-03  3.3424457834958644e-03  3.3424457835072529e-03  3.3424457835210500e-03  3.3424457835377719e-03  3.3424457835580473e-03  3.3424457835826249e-03  3.3424457836124613e-03  3.3424457836487209e-03  3.3424457836928336e-03  3.3424457837465758e-03  3.3424457838120898e-03  3.3424457838920917e-03  3.3424457839899570e-03  3.3424457841099674e-03  3.3424457842577177e-03  3.3424457844408117e-03  3.3424457846701018e-03  3.3424457849622813e-03  3.3424457853448116e-03  3.3424457858659937e-03  3.3424457866154515e-03  3.3424457877657618e-03  3.3424457896567938e-03  3.3424457929658925e-03  3.3424457990477402e-03  3.3424458106064386e-03  3.3424458330071935e-03  3.3424458767970181e-03  3.3424459624617144e-03  3.3424461292144514e-03  3.3424464508327646e-03  3.3424470633749972e-03  3.3424482120397348e-03  3.3424503271747164e-03  3.3424541413987242e-03  3.3424608581758414e-03  3.3424723704585388e-03  3.3424914914905362e-03  3.3425220688808126e-03  3.3425686716868483e-03  3.3426353340582741e-03  3.3427231438386629e-03  3.3428279086666242e-03  3.3429393891317972e-03  3.3430419252633691e-03  3.3431171169527991e-03  3.3431495161435824e-03  3.3431329707455494e-03  3.3430727611925650e-03  3.3429827074501987e-03  3.3428804310438320e-03  3.3427818236888120e-03  3.3426970609527454e-03  3.3426300370442323e-03  3.3425803054962649e-03  3.3425455683118539e-03  3.3425235052661601e-03  3.3425127160381187e-03  3.3425130080600753e-03  3.3425252553677181e-03  3.3425508527278372e-03  3.3425906182700236e-03  3.3426430463340986e-03  3.3427023220019888e-03  3.3427576417792439e-03  3.3427961173517367e-03  3.3428089782405637e-03  3.3427959056426563e-03  3.3427634149373361e-03  3.3427199674858623e-03  3.3426723885878903e-03  3.3426252206476552e-03  3.3425816322932038e-03  3.3425439609190834e-03  3.3425135427000039e-03  3.3424905537477881e-03  3.3424742211535263e-03  3.3424632661384584e-03  3.3424563325185740e-03  3.3424522725269187e-03  3.3424502929005361e-03  9.9598949406112854e-03  3.3424457834491362e-03  1.6740296672352922e-03  1.6740296672353304e-03  1.6740296672353968e-03  1.6740296672355008e-03  1.6740296672356574e-03  1.6740296672358816e-03  1.6740296672361976e-03  1.6740296672366343e-03  1.6740296672372230e-03  1.6740296672380093e-03  1.6740296672390434e-03  1.6740296672403821e-03  1.6740296672420976e-03  1.6740296672442738e-03  1.6740296672469997e-03  1.6740296672503846e-03  1.6740296672545613e-03  1.6740296672596757e-03  1.6740296672659088e-03  1.6740296672734878e-03  1.6740296672826764e-03  1.6740296672938071e-03  1.6740296673072974e-03  1.6740296673236467e-03  1.6740296673434811e-03  1.6740296673675738e-03  1.6740296673968709e-03  1.6740296674325422e-03  1.6740296674760133e-03  1.6740296675290579e-03  1.6740296675938910e-03  1.6740296676732859e-03  1.6740296677708135e-03  1.6740296678912202e-03  1.6740296680410952e-03  1.6740296682302082e-03  1.6740296684740954e-03  1.6740296687992515e-03  1.6740296692537516e-03  1.6740296699289006e-03  1.6740296710033827e-03  1.6740296728330203e-03  1.6740296761318424e-03  1.6740296823341020e-03  1.6740296943099243e-03  1.6740297177603748e-03  1.6740297638924071e-03  1.6740298544483361e-03  1.6740300309454571e-03  1.6740303711915822e-03  1.6740310178658335e-03  1.6740322261162128e-03  1.6740344392619259e-03  1.6740384025081168e-03  1.6740453209103611e-03  1.6740570512813703e-03  1.6740762648412666e-03  1.6741063744182022e-03  1.6741507505380541e-03  1.6742108220466935e-03  1.6742841287228877e-03  1.6743637614169929e-03  1.6744385681325960e-03  1.6744947030582636e-03  1.6745199915213422e-03  1.6745093742399353e-03  1.6744667097882931e-03  1.6744022441709475e-03  1.6743291800109044e-03  1.6742593691538863e-03  1.6742000988553369e-03  1.6741538006136609e-03  1.6741197433923364e-03  1.6740959952834874e-03  1.6740807494767221e-03  1.6740729466113784e-03  1.6740724455885573e-03  1.6740799418029028e-03  1.6740966474405189e-03  1.6741235826770219e-03  1.6741602929756583e-03  1.6742031151301682e-03  1.6742441348336142e-03  1.6742731461043246e-03  1.6742829961530316e-03  1.6742735485319594e-03  1.6742501492168517e-03  1.6742193357561800e-03  1.6741859726886431e-03  1.6741530327136595e-03  1.6741226072386208e-03  1.6740963659792932e-03  1.6740752966679926e-03  1.6740595131905628e-03  1.6740484191021022e-03  1.6740410595563143e-03  1.6740364440090130e-03  1.6740337450208858e-03  1.6740323828755746e-03  3.3424502303218868e-03  3.3424457834493044e-03  1.6740296672353764e-03  1.6740296672354423e-03  1.6740296672355559e-03  1.6740296672357355e-03  1.6740296672360065e-03  1.6740296672363992e-03  1.6740296672369600e-03  1.6740296672377467e-03  1.6740296672388261e-03  1.6740296672402898e-03  1.6740296672422415e-03  1.6740296672448014e-03  1.6740296672481138e-03  1.6740296672523463e-03  1.6740296672576806e-03  1.6740296672643330e-03  1.6740296672725621e-03  1.6740296672826565e-03  1.6740296672949719e-03  1.6740296673099456e-03  1.6740296673280982e-03  1.6740296673500809e-03  1.6740296673767045e-03  1.6740296674089552e-03  1.6740296674480611e-03  1.6740296674955378e-03  1.6740296675532439e-03  1.6740296676234705e-03  1.6740296677090183e-03  1.6740296678133485e-03  1.6740296679407462e-03  1.6740296680965358e-03  1.6740296682874484e-03  1.6740296685221956e-03  1.6740296688124384e-03  1.6740296691746504e-03  1.6740296696336708e-03  1.6740296702297895e-03  1.6740296710332241e-03  1.6740296721738256e-03  1.6740296739023097e-03  1.6740296767164694e-03  1.6740296816201404e-03  1.6740296906511377e-03  1.6740297079479753e-03  1.6740297418803075e-03  1.6740298092435195e-03  1.6740299433745641e-03  1.6740302095257899e-03  1.6740307332536815e-03  1.6740317512609162e-03  1.6740336992058197e-03  1.6740373570853081e-03  1.6740440786781299e-03  1.6740561346674627e-03  1.6740771914054496e-03  1.6741128847804221e-03  1.6741711319994501e-03  1.6742607269740126e-03  1.6743861451410250e-03  1.6745422814498305e-03  1.6747141512807463e-03  1.6748767519839190e-03  1.6749971454231452e-03  1.6750458695984790e-03  1.6750127414031154e-03  1.6749100856074247e-03  1.6747634129257723e-03  1.6746041592045255e-03  1.6744588158291703e-03  1.6743410471247258e-03  1.6742528019139751e-03  1.6741898800126684e-03  1.6741467989361319e-03  1.6741193470134824e-03  1.6741054077360244e-03  1.6741050088225000e-03  1.6741201103425815e-03  1.6741540878673611e-03  1.6742104033306796e-03  1.6742896848478861e-03  1.6743848320830647e-03  1.6744767869758582e-03  1.6745391230256865e-03  1.6745544580796809e-03  1.6745258693060122e-03  1.6744696300993423e-03  1.6744018507893485e-03  1.6743319850560253e-03  1.6742645013875729e-03  1.6742029292848035e-03  1.6741507644434739e-03  1.6741099999948220e-03  1.6740804863053099e-03  1.6740605118461189e-03  1.6740477656631023e-03  1.6740400656145259e-03  1.6740357118538727e-03  1.6740335740197422e-03  3.3424519243777082e-03  3.3424457834496674e-03  1.6740296672355620e-03  1.6740296672356891e-03  1.6740296672359139e-03  1.6740296672362717e-03  1.6740296672368162e-03  1.6740296672376172e-03  1.6740296672387743e-03  1.6740296672404140e-03  1.6740296672426911e-03  1.6740296672458058e-03  1.6740296672499923e-03  1.6740296672555222e-03  1.6740296672627167e-03  1.6740296672719435e-03  1.6740296672836125e-03  1.6740296672981974e-03  1.6740296673162550e-03  1.6740296673384244e-03  1.6740296673654770e-03  1.6740296673983560e-03  1.6740296674382048e-03  1.6740296674864399e-03  1.6740296675448231e-03  1.6740296676155193e-03  1.6740296677012097e-03  1.6740296678052055e-03  1.6740296679315727e-03  1.6740296680853120e-03  1.6740296682725487e-03  1.6740296685008142e-03  1.6740296687793854e-03  1.6740296691197159e-03  1.6740296695360989e-03  1.6740296700466499e-03  1.6740296706749035e-03  1.6740296714526938e-03  1.6740296724255240e-03  1.6740296736630861e-03  1.6740296752806184e-03  1.6740296774828557e-03  1.6740296806554171e-03  1.6740296855556596e-03  1.6740296937109264e-03  1.6740297082467426e-03  1.6740297355984511e-03  1.6740297890169551e-03  1.6740298956647083e-03  1.6740301107632067e-03  1.6740305452669910e-03  1.6740314187256087e-03  1.6740331573323751e-03  1.6740365693776417e-03  1.6740431461812512e-03  1.6740555547598152e-03  1.6740784108078045e-03  1.6741194652605217e-03  1.6741914071508226e-03  1.6743141048972520e-03  1.6745129522175435e-03  1.6748027654043293e-03  1.6751713646990273e-03  1.6755839137076304e-03  1.6759801409840052e-03  1.6762727701826107e-03  1.6763803748470884e-03  1.6762801225381704e-03  1.6760126134554504e-03  1.6756452699211277e-03  1.6752607906717291e-03  1.6749254470440154e-03  1.6746663298882363e-03  1.6744799350960045e-03  1.6743506096125670e-03  1.6742630484358144e-03  1.6742070686526932e-03  1.6741781871299356e-03  1.6741770693720604e-03  1.6742090857619668e-03  1.6742836795660015e-03  1.6744120549420684e-03  1.6746005007155132e-03  1.6748358729606967e-03  1.6750680791510881e-03  1.6752199438265344e-03  1.6752430243648917e-03  1.6751551514922970e-03  1.6750084904816906e-03  1.6748456613372865e-03  1.6746850255398961e-03  1.6745316718667627e-03  1.6743923338691259e-03  1.6742761575448254e-03  1.6741879213076757e-03  1.6741263118085711e-03  1.6740862396362681e-03  1.6740616778493662e-03  1.6740474006731315e-03  1.6740395992153648e-03  1.6740358656410542e-03  3.3424553100549845e-03  3.3424457834504086e-03  1.6740296672359423e-03  1.6740296672362028e-03  1.6740296672366681e-03  1.6740296672374177e-03  1.6740296672385694e-03  1.6740296672402833e-03  1.6740296672427795e-03  1.6740296672463448e-03  1.6740296672513363e-03  1.6740296672582032e-03  1.6740296672674811e-03  1.6740296672797938e-03  1.6740296672958690e-03  1.6740296673165354e-03  1.6740296673427237e-03  1.6740296673754993e-03  1.6740296674160977e-03  1.6740296674659519e-03  1.6740296675267811e-03  1.6740296676006792e-03  1.6740296676902011e-03  1.6740296677985151e-03  1.6740296679295518e-03  1.6740296680881649e-03  1.6740296682803621e-03  1.6740296685135571e-03  1.6740296687968621e-03  1.6740296691414756e-03  1.6740296695611167e-03  1.6740296700726168e-03  1.6740296706966376e-03  1.6740296714585841e-03  1.6740296723898953e-03  1.6740296735298762e-03  1.6740296749285205e-03  1.6740296766512893e-03  1.6740296787876761e-03  1.6740296814675294e-03  1.6740296848936453e-03  1.6740296894085477e-03  1.6740296956337672e-03  1.6740297047632389e-03  1.6740297191836927e-03  1.6740297437867222e-03  1.6740297887353460e-03  1.6740298752627601e-03  1.6740300477191916e-03  1.6740303982951405e-03  1.6740311169415540e-03  1.6740325900421844e-03  1.6740355901173399e-03  1.6740416277100717e-03  1.6740535751265135e-03  1.6740767134919995e-03  1.6741203997171737e-03  1.6742007134386897e-03  1.6743452503440747e-03  1.6746030566841868e-03  1.6750491935126376e-03  1.6757315474895285e-03  1.6766155699221236e-03  1.6776231475347334e-03  1.6786151364033039e-03  1.6793541457817422e-03  1.6796000908712524e-03  1.6793020023073578e-03  1.6785970378399642e-03  1.6776588930566150e-03  1.6767123691298600e-03  1.6759286592677866e-03  1.6753546507013257e-03  1.6749586961231897e-03  1.6746900822883848e-03  1.6745086592753471e-03  1.6743911108647069e-03  1.6743285156316557e-03  1.6743236511133021e-03  1.6743903776381616e-03  1.6745538687734343e-03  1.6748479397975559e-03  1.6753019328068258e-03  1.6758993770373998e-03  1.6765072714243308e-03  1.6768890405675842e-03  1.6769032671830400e-03  1.6766331583044191e-03  1.6762467286834250e-03  1.6758544039044004e-03  1.6754834024129111e-03  1.6751286980670210e-03  1.6748050689707444e-03  1.6745401302742636e-03  1.6743456994016389e-03  1.6742154876435954e-03  1.6741344149276438e-03  1.6740867988347494e-03  1.6740601999003582e-03  1.6740461600676189e-03  1.6740396063340338e-03  3.3424608364975169e-03  3.3424457834518987e-03  1.6740296672367139e-03  1.6740296672372566e-03  1.6740296672382361e-03  1.6740296672398301e-03  1.6740296672422992e-03  1.6740296672460070e-03  1.6740296672514484e-03  1.6740296672592726e-03  1.6740296672702994e-03  1.6740296672855511e-03  1.6740296673062522e-03  1.6740296673338369e-03  1.6740296673699627e-03  1.6740296674165123e-03  1.6740296674756009e-03  1.6740296675496319e-03  1.6740296676413708e-03  1.6740296677540342e-03  1.6740296678914700e-03  1.6740296680583559e-03  1.6740296682604288e-03  1.6740296685047997e-03  1.6740296688002978e-03  1.6740296691578524e-03  1.6740296695909919e-03  1.6740296701164090e-03  1.6740296707546342e-03  1.6740296715308807e-03  1.6740296724760439e-03  1.6740296736279759e-03  1.6740296750330521e-03  1.6740296767481391e-03  1.6740296788432312e-03  1.6740296814050550e-03  1.6740296845423328e-03  1.6740296883941436e-03  1.6740296931441580e-03  1.6740296990466793e-03  1.6740297064771934e-03  1.6740297160344098e-03  1.6740297287520286e-03  1.6740297465458640e-03  1.6740297731669669e-03  1.6740298162430233e-03  1.6740298916547679e-03  1.6740300328975896e-03  1.6740303110042551e-03  1.6740308765898571e-03  1.6740320475024844e-03  1.6740344884153802e-03  1.6740395700298562e-03  1.6740500636658645e-03  1.6740714217838807e-03  1.6741139813291016e-03  1.6741963873988048e-03  1.6743504321661867e-03  1.6746296511368488e-03  1.6751400611775026e-03  1.6760892639264722e-03  1.6776126104457733e-03  1.6795878779539053e-03  1.6818928413946958e-03  1.6843444244286573e-03  1.6863666810981526e-03  1.6871212791340531e-03  1.6863714945016992e-03  1.6845765459177016e-03  1.6821782146384447e-03  1.6798378961207815e-03  1.6780208717725839e-03  1.6767723276188216e-03  1.6759475576441508e-03  1.6753962104890340e-03  1.6750204112944496e-03  1.6747711043611899e-03  1.6746324469158699e-03  1.6746131211802877e-03  1.6747466796080061e-03  1.6750966242293989e-03  1.6757584842832811e-03  1.6768441602628401e-03  1.6783747906580647e-03  1.6800020470776303e-03  1.6809723814744980e-03  1.6808609393287228e-03  1.6800321889817455e-03  1.6790231965310247e-03  1.6781017200904965e-03  1.6772648491663110e-03  1.6764443049723258e-03  1.6756838688472208e-03  1.6750769647470717e-03  1.6746510596761818e-03  1.6743798547571138e-03  1.6742192123058660e-03  1.6741291704997351e-03  1.6740809524455034e-03  1.6740564028756321e-03  1.6740452323932644e-03  3.3424690788991613e-03  3.3424457834548668e-03  1.6740296672382632e-03  1.6740296672394029e-03  1.6740296672414748e-03  1.6740296672448729e-03  1.6740296672501779e-03  1.6740296672582069e-03  1.6740296672700774e-03  1.6740296672872611e-03  1.6740296673116342e-03  1.6740296673455296e-03  1.6740296673917550e-03  1.6740296674536046e-03  1.6740296675348668e-03  1.6740296676398295e-03  1.6740296677732987e-03  1.6740296679406993e-03  1.6740296681482345e-03  1.6740296684031207e-03  1.6740296687139675e-03  1.6740296690912460e-03  1.6740296695478330e-03  1.6740296700997058e-03  1.6740296707667263e-03  1.6740296715735247e-03  1.6740296725505969e-03  1.6740296737355795e-03  1.6740296751747751e-03  1.6740296769250386e-03  1.6740296790560319e-03  1.6740296816530429e-03  1.6740296848204346e-03  1.6740296886859484e-03  1.6740296934062684e-03  1.6740296991743866e-03  1.6740297062298711e-03  1.6740297148742226e-03  1.6740297254955341e-03  1.6740297386112807e-03  1.6740297549479677e-03  1.6740297755975376e-03  1.6740298023369027e-03  1.6740298382984312e-03  1.6740298894009150e-03  1.6740299674358979e-03  1.6740300967635806e-03  1.6740303288745333e-03  1.6740307740405801e-03  1.6740316698741077e-03  1.6740335288277257e-03  1.6740374519985004e-03  1.6740457852330965e-03  1.6740634544867748e-03  1.6741005684418650e-03  1.6741770888269473e-03  1.6743294606197611e-03  1.6746145742881967e-03  1.6751048687634544e-03  1.6759133118462743e-03  2.5168175396360769e-03  3.3678384126636703e-03  3.3821065081452895e-03  3.3984885494730689e-03  3.4178001429964527e-03  3.4384369744611932e-03  2.5701217233175021e-03  1.7008376427453651e-03  1.6976821967003147e-03  1.6921182704686991e-03  1.6864086388728018e-03  1.6822807559991443e-03  1.6796511811703210e-03  1.6779830613490483e-03  1.6768675678921626e-03  1.6760882680613653e-03  1.6755541518037912e-03  1.6752419132770821e-03  1.6751743332648536e-03  1.6754271089137367e-03  1.6761504198430212e-03  1.6775900177415952e-03  1.6800965511640361e-03  1.6838737057543948e-03  1.6880219941490917e-03  1.6902817814779131e-03  1.6894884602677168e-03  1.6870735467141395e-03  1.6846254157862597e-03  1.6827065964164678e-03  1.6810604097554603e-03  1.6792835011711063e-03  1.6775161621537310e-03  1.6761340419712252e-03  1.6752169723797605e-03  1.6746675379767182e-03  1.6743601053264769e-03  1.6741963585438458e-03  1.6741125015171678e-03  1.6740713726138745e-03  1.6740531436866524e-03  3.3424805503036907e-03  3.3424457834607788e-03  1.6740296672413707e-03  1.6740296672437653e-03  1.6740296672481450e-03  1.6740296672553784e-03  1.6740296672667554e-03  1.6740296672841100e-03  1.6740296673099617e-03  1.6740296673476492e-03  1.6740296674014566e-03  1.6740296674767241e-03  1.6740296675798946e-03  1.6740296677185337e-03  1.6740296679013213e-03  1.6740296681380384e-03  1.6740296684396054e-03  1.6740296688182658e-03  1.6740296692879439e-03  1.6740296698648060e-03  1.6740296705681102e-03  1.6740296714212880e-03  1.6740296724532310e-03  1.6740296736998466e-03  1.6740296752058290e-03  1.6740296770266932e-03  1.6740296792312039e-03  1.6740296819042482e-03  1.6740296851502883e-03  1.6740296890975788e-03  1.6740296939032639e-03  1.6740296997596518e-03  1.6740297069018886e-03  1.6740297156174458e-03  1.6740297262581251e-03  1.6740297392555537e-03  1.6740297551419887e-03  1.6740297745798537e-03  1.6740297984064640e-03  1.6740298277070891e-03  1.6740298639437269e-03  1.6740299091975767e-03  1.6740299666502560e-03  1.6740300415760355e-03  1.6740301434421026e-03  1.6740302904341108e-03  1.6740305193244378e-03  1.6740309071591262e-03  1.6740316191491173e-03  1.6740330146780939e-03  1.6740358819204806e-03  1.6740419554780778e-03  1.6740550501451951e-03  1.6740835097885723e-03  1.6741453489578588e-03  1.6742780299355399e-03  1.6745487844858538e-03  1.6750387383657798e-03  2.5128609036533900e-03  3.3532979101069242e-03  5.0370683389171144e-03  7.0349746025439663e-01  7.8019280406155678e-01  8.2964038312254818e-01  8.6660725459859367e-01  8.9184108125539507e-01  9.2325751319589044e-01  5.4181330722610343e-03  2.6097732900713013e-03  1.7112127831790745e-03  1.6995441798302200e-03  1.6907155464855723e-03  1.6854603921391052e-03  1.6822031955590348e-03  1.6799630980061210e-03  1.6783304704294847e-03  1.6771698557046790e-03  1.6764579715748706e-03  1.6762451510055072e-03  1.6766889398835388e-03  1.6781165751084161e-03  1.6810403299780219e-03  1.6861123354350704e-03  1.6937465122647945e-03  2.5728916234636205e-03  3.4740964202490112e-03  3.4612904218221489e-03  3.4363722110081832e-03  3.4159640358603230e-03  3.4032058876812999e-03  3.3945419976932479e-03  2.5322312621754357e-03  1.6810167321704105e-03  1.6781073658820511e-03  1.6762060236877392e-03  1.6751389965903719e-03  1.6745783304563089e-03  1.6742954651372088e-03  1.6741571020801123e-03  1.6740917367486570e-03  1.6740635127878913e-03  3.3424954419525726e-03  3.3424457834724929e-03  1.6740296672475767e-03  1.6740296672525939e-03  1.6740296672618222e-03  1.6740296672771676e-03  1.6740296673014921e-03  1.6740296673388977e-03  1.6740296673950594e-03  1.6740296674775503e-03  1.6740296675961486e-03  1.6740296677630860e-03  1.6740296679931682e-03  1.6740296683037869e-03  1.6740296687148557e-03  1.6740296692487205e-03  1.6740296699301969e-03  1.6740296707869237e-03  1.6740296718501461e-03  1.6740296731560318e-03  1.6740296747476218e-03  1.6740296766773288e-03  1.67402967900