<?xml version="1.0"?>
<VTKFile type="UnstructuredGrid"  version="0.1"  >
<UnstructuredGrid>
<Piece  NumberOfPoints="5151" NumberOfCells="10000">
<Points>
<DataArray  type="Float64"  NumberOfComponents="3"  format="ascii">0 0 0  0.02 0 0  0.04 0 0  0.06 0 0  0.08 0 0  0.1 0 0  0.12 0 0  0.14 0 0  0.16 0 0  0.18 0 0  0.2 0 0  0.22 0 0  0.24 0 0  0.26 0 0  0.28 0 0  0.3 0 0  0.32 0 0  0.34 0 0  0.36 0 0  0.38 0 0  0.4 0 0  0.42 0 0  0.44 0 0  0.46 0 0  0.48 0 0  0.5 0 0  0.52 0 0  0.54 0 0  0.5600000000000001 0 0  0.58 0 0  0.6 0 0  0.62 0 0  0.64 0 0  0.66 0 0  0.68 0 0  0.7 0 0  0.72 0 0  0.74 0 0  0.76 0 0  0.78 0 0  0.8 0 0  0.82 0 0  0.84 0 0  0.86 0 0  0.88 0 0  0.9 0 0  0.92 0 0  0.9399999999999999 0 0  0.96 0 0  0.98 0 0  1 0 0  1.02 0 0  1.04 0 0  1.06 0 0  1.08 0 0  1.1 0 0  1.12 0 0  1.14 0 0  1.16 0 0  1.18 0 0  1.2 0 0  1.22 0 0  1.24 0 0  1.26 0 0  1.28 0 0  1.3 0 0  1.32 0 0  1.34 0 0  1.36 0 0  1.38 0 0  1.4 0 0  1.42 0 0  1.44 0 0  1.46 0 0  1.48 0 0  1.5 0 0  1.52 0 0  1.54 0 0  1.56 0 0  1.58 0 0  1.6 0 0  1.62 0 0  1.64 0 0  1.66 0 0  1.68 0 0  1.7 0 0  1.72 0 0  1.74 0 0  1.76 0 0  1.78 0 0  1.8 0 0  1.82 0 0  1.84 0 0  1.86 0 0  1.88 0 0  1.9 0 0  1.92 0 0  1.94 0 0  1.96 0 0  1.98 0 0  2 0 0  0 0.02 0  0.02 0.02 0  0.04 0.02 0  0.06 0.02 0  0.08 0.02 0  0.1 0.02 0  0.12 0.02 0  0.14 0.02 0  0.16 0.02 0  0.18 0.02 0  0.2 0.02 0  0.22 0.02 0  0.24 0.02 0  0.26 0.02 0  0.28 0.02 0  0.3 0.02 0  0.32 0.02 0  0.34 0.02 0  0.36 0.02 0  0.38 0.02 0  0.4 0.02 0  0.42 0.02 0  0.44 0.02 0  0.46 0.02 0  0.48 0.02 0  0.5 0.02 0  0.52 0.02 0  0.54 0.02 0  0.5600000000000001 0.02 0  0.58 0.02 0  0.6 0.02 0  0.62 0.02 0  0.64 0.02 0  0.66 0.02 0  0.68 0.02 0  0.7 0.02 0  0.72 0.02 0  0.74 0.02 0  0.76 0.02 0  0.78 0.02 0  0.8 0.02 0  0.82 0.02 0  0.84 0.02 0  0.86 0.02 0  0.88 0.02 0  0.9 0.02 0  0.92 0.02 0  0.9399999999999999 0.02 0  0.96 0.02 0  0.98 0.02 0  1 0.02 0  1.02 0.02 0  1.04 0.02 0  1.06 0.02 0  1.08 0.02 0  1.1 0.02 0  1.12 0.02 0  1.14 0.02 0  1.16 0.02 0  1.18 0.02 0  1.2 0.02 0  1.22 0.02 0  1.24 0.02 0  1.26 0.02 0  1.28 0.02 0  1.3 0.02 0  1.32 0.02 0  1.34 0.02 0  1.36 0.02 0  1.38 0.02 0  1.4 0.02 0  1.42 0.02 0  1.44 0.02 0  1.46 0.02 0  1.48 0.02 0  1.5 0.02 0  1.52 0.02 0  1.54 0.02 0  1.56 0.02 0  1.58 0.02 0  1.6 0.02 0  1.62 0.02 0  1.64 0.02 0  1.66 0.02 0  1.68 0.02 0  1.7 0.02 0  1.72 0.02 0  1.74 0.02 0  1.76 0.02 0  1.78 0.02 0  1.8 0.02 0  1.82 0.02 0  1.84 0.02 0  1.86 0.02 0  1.88 0.02 0  1.9 0.02 0  1.92 0.02 0  1.94 0.02 0  1.96 0.02 0  1.98 0.02 0  2 0.02 0  0 0.04 0  0.02 0.04 0  0.04 0.04 0  0.06 0.04 0  0.08 0.04 0  0.1 0.04 0  0.12 0.04 0  0.14 0.04 0  0.16 0.04 0  0.18 0.04 0  0.2 0.04 0  0.22 0.04 0  0.24 0.04 0  0.26 0.04 0  0.28 0.04 0  0.3 0.04 0  0.32 0.04 0  0.34 0.04 0  0.36 0.04 0  0.38 0.04 0  0.4 0.04 0  0.42 0.04 0  0.44 0.04 0  0.46 0.04 0  0.48 0.04 0  0.5 0.04 0  0.52 0.04 0  0.54 0.04 0  0.5600000000000001 0.04 0  0.58 0.04 0  0.6 0.04 0  0.62 0.04 0  0.64 0.04 0  0.66 0.04 0  0.68 0.04 0  0.7 0.04 0  0.72 0.04 0  0.74 0.04 0  0.76 0.04 0  0.78 0.04 0  0.8 0.04 0  0.82 0.04 0  0.84 0.04 0  0.86 0.04 0  0.88 0.04 0  0.9 0.04 0  0.92 0.04 0  0.9399999999999999 0.04 0  0.96 0.04 0  0.98 0.04 0  1 0.04 0  1.02 0.04 0  1.04 0.04 0  1.06 0.04 0  1.08 0.04 0  1.1 0.04 0  1.12 0.04 0  1.14 0.04 0  1.16 0.04 0  1.18 0.04 0  1.2 0.04 0  1.22 0.04 0  1.24 0.04 0  1.26 0.04 0  1.28 0.04 0  1.3 0.04 0  1.32 0.04 0  1.34 0.04 0  1.36 0.04 0  1.38 0.04 0  1.4 0.04 0  1.42 0.04 0  1.44 0.04 0  1.46 0.04 0  1.48 0.04 0  1.5 0.04 0  1.52 0.04 0  1.54 0.04 0  1.56 0.04 0  1.58 0.04 0  1.6 0.04 0  1.62 0.04 0  1.64 0.04 0  1.66 0.04 0  1.68 0.04 0  1.7 0.04 0  1.72 0.04 0  1.74 0.04 0  1.76 0.04 0  1.78 0.04 0  1.8 0.04 0  1.82 0.04 0  1.84 0.04 0  1.86 0.04 0  1.88 0.04 0  1.9 0.04 0  1.92 0.04 0  1.94 0.04 0  1.96 0.04 0  1.98 0.04 0  2 0.04 0  0 0.06 0  0.02 0.06 0  0.04 0.06 0  0.06 0.06 0  0.08 0.06 0  0.1 0.06 0  0.12 0.06 0  0.14 0.06 0  0.16 0.06 0  0.18 0.06 0  0.2 0.06 0  0.22 0.06 0  0.24 0.06 0  0.26 0.06 0  0.28 0.06 0  0.3 0.06 0  0.32 0.06 0  0.34 0.06 0  0.36 0.06 0  0.38 0.06 0  0.4 0.06 0  0.42 0.06 0  0.44 0.06 0  0.46 0.06 0  0.48 0.06 0  0.5 0.06 0  0.52 0.06 0  0.54 0.06 0  0.5600000000000001 0.06 0  0.58 0.06 0  0.6 0.06 0  0.62 0.06 0  0.64 0.06 0  0.66 0.06 0  0.68 0.06 0  0.7 0.06 0  0.72 0.06 0  0.74 0.06 0  0.76 0.06 0  0.78 0.06 0  0.8 0.06 0  0.82 0.06 0  0.84 0.06 0  0.86 0.06 0  0.88 0.06 0  0.9 0.06 0  0.92 0.06 0  0.9399999999999999 0.06 0  0.96 0.06 0  0.98 0.06 0  1 0.06 0  1.02 0.06 0  1.04 0.06 0  1.06 0.06 0  1.08 0.06 0  1.1 0.06 0  1.12 0.06 0  1.14 0.06 0  1.16 0.06 0  1.18 0.06 0  1.2 0.06 0  1.22 0.06 0  1.24 0.06 0  1.26 0.06 0  1.28 0.06 0  1.3 0.06 0  1.32 0.06 0  1.34 0.06 0  1.36 0.06 0  1.38 0.06 0  1.4 0.06 0  1.42 0.06 0  1.44 0.06 0  1.46 0.06 0  1.48 0.06 0  1.5 0.06 0  1.52 0.06 0  1.54 0.06 0  1.56 0.06 0  1.58 0.06 0  1.6 0.06 0  1.62 0.06 0  1.64 0.06 0  1.66 0.06 0  1.68 0.06 0  1.7 0.06 0  1.72 0.06 0  1.74 0.06 0  1.76 0.06 0  1.78 0.06 0  1.8 0.06 0  1.82 0.06 0  1.84 0.06 0  1.86 0.06 0  1.88 0.06 0  1.9 0.06 0  1.92 0.06 0  1.94 0.06 0  1.96 0.06 0  1.98 0.06 0  2 0.06 0  0 0.08 0  0.02 0.08 0  0.04 0.08 0  0.06 0.08 0  0.08 0.08 0  0.1 0.08 0  0.12 0.08 0  0.14 0.08 0  0.16 0.08 0  0.18 0.08 0  0.2 0.08 0  0.22 0.08 0  0.24 0.08 0  0.26 0.08 0  0.28 0.08 0  0.3 0.08 0  0.32 0.08 0  0.34 0.08 0  0.36 0.08 0  0.38 0.08 0  0.4 0.08 0  0.42 0.08 0  0.44 0.08 0  0.46 0.08 0  0.48 0.08 0  0.5 0.08 0  0.52 0.08 0  0.54 0.08 0  0.5600000000000001 0.08 0  0.58 0.08 0  0.6 0.08 0  0.62 0.08 0  0.64 0.08 0  0.66 0.08 0  0.68 0.08 0  0.7 0.08 0  0.72 0.08 0  0.74 0.08 0  0.76 0.08 0  0.78 0.08 0  0.8 0.08 0  0.82 0.08 0  0.84 0.08 0  0.86 0.08 0  0.88 0.08 0  0.9 0.08 0  0.92 0.08 0  0.9399999999999999 0.08 0  0.96 0.08 0  0.98 0.08 0  1 0.08 0  1.02 0.08 0  1.04 0.08 0  1.06 0.08 0  1.08 0.08 0  1.1 0.08 0  1.12 0.08 0  1.14 0.08 0  1.16 0.08 0  1.18 0.08 0  1.2 0.08 0  1.22 0.08 0  1.24 0.08 0  1.26 0.08 0  1.28 0.08 0  1.3 0.08 0  1.32 0.08 0  1.34 0.08 0  1.36 0.08 0  1.38 0.08 0  1.4 0.08 0  1.42 0.08 0  1.44 0.08 0  1.46 0.08 0  1.48 0.08 0  1.5 0.08 0  1.52 0.08 0  1.54 0.08 0  1.56 0.08 0  1.58 0.08 0  1.6 0.08 0  1.62 0.08 0  1.64 0.08 0  1.66 0.08 0  1.68 0.08 0  1.7 0.08 0  1.72 0.08 0  1.74 0.08 0  1.76 0.08 0  1.78 0.08 0  1.8 0.08 0  1.82 0.08 0  1.84 0.08 0  1.86 0.08 0  1.88 0.08 0  1.9 0.08 0  1.92 0.08 0  1.94 0.08 0  1.96 0.08 0  1.98 0.08 0  2 0.08 0  0 0.1 0  0.02 0.1 0  0.04 0.1 0  0.06 0.1 0  0.08 0.1 0  0.1 0.1 0  0.12 0.1 0  0.14 0.1 0  0.16 0.1 0  0.18 0.1 0  0.2 0.1 0  0.22 0.1 0  0.24 0.1 0  0.26 0.1 0  0.28 0.1 0  0.3 0.1 0  0.32 0.1 0  0.34 0.1 0  0.36 0.1 0  0.38 0.1 0  0.4 0.1 0  0.42 0.1 0  0.44 0.1 0  0.46 0.1 0  0.48 0.1 0  0.5 0.1 0  0.52 0.1 0  0.54 0.1 0  0.5600000000000001 0.1 0  0.58 0.1 0  0.6 0.1 0  0.62 0.1 0  0.64 0.1 0  0.66 0.1 0  0.68 0.1 0  0.7 0.1 0  0.72 0.1 0  0.74 0.1 0  0.76 0.1 0  0.78 0.1 0  0.8 0.1 0  0.82 0.1 0  0.84 0.1 0  0.86 0.1 0  0.88 0.1 0  0.9 0.1 0  0.92 0.1 0  0.9399999999999999 0.1 0  0.96 0.1 0  0.98 0.1 0  1 0.1 0  1.02 0.1 0  1.04 0.1 0  1.06 0.1 0  1.08 0.1 0  1.1 0.1 0  1.12 0.1 0  1.14 0.1 0  1.16 0.1 0  1.18 0.1 0  1.2 0.1 0  1.22 0.1 0  1.24 0.1 0  1.26 0.1 0  1.28 0.1 0  1.3 0.1 0  1.32 0.1 0  1.34 0.1 0  1.36 0.1 0  1.38 0.1 0  1.4 0.1 0  1.42 0.1 0  1.44 0.1 0  1.46 0.1 0  1.48 0.1 0  1.5 0.1 0  1.52 0.1 0  1.54 0.1 0  1.56 0.1 0  1.58 0.1 0  1.6 0.1 0  1.62 0.1 0  1.64 0.1 0  1.66 0.1 0  1.68 0.1 0  1.7 0.1 0  1.72 0.1 0  1.74 0.1 0  1.76 0.1 0  1.78 0.1 0  1.8 0.1 0  1.82 0.1 0  1.84 0.1 0  1.86 0.1 0  1.88 0.1 0  1.9 0.1 0  1.92 0.1 0  1.94 0.1 0  1.96 0.1 0  1.98 0.1 0  2 0.1 0  0 0.12 0  0.02 0.12 0  0.04 0.12 0  0.06 0.12 0  0.08 0.12 0  0.1 0.12 0  0.12 0.12 0  0.14 0.12 0  0.16 0.12 0  0.18 0.12 0  0.2 0.12 0  0.22 0.12 0  0.24 0.12 0  0.26 0.12 0  0.28 0.12 0  0.3 0.12 0  0.32 0.12 0  0.34 0.12 0  0.36 0.12 0  0.38 0.12 0  0.4 0.12 0  0.42 0.12 0  0.44 0.12 0  0.46 0.12 0  0.48 0.12 0  0.5 0.12 0  0.52 0.12 0  0.54 0.12 0  0.5600000000000001 0.12 0  0.58 0.12 0  0.6 0.12 0  0.62 0.12 0  0.64 0.12 0  0.66 0.12 0  0.68 0.12 0  0.7 0.12 0  0.72 0.12 0  0.74 0.12 0  0.76 0.12 0  0.78 0.12 0  0.8 0.12 0  0.82 0.12 0  0.84 0.12 0  0.86 0.12 0  0.88 0.12 0  0.9 0.12 0  0.92 0.12 0  0.9399999999999999 0.12 0  0.96 0.12 0  0.98 0.12 0  1 0.12 0  1.02 0.12 0  1.04 0.12 0  1.06 0.12 0  1.08 0.12 0  1.1 0.12 0  1.12 0.12 0  1.14 0.12 0  1.16 0.12 0  1.18 0.12 0  1.2 0.12 0  1.22 0.12 0  1.24 0.12 0  1.26 0.12 0  1.28 0.12 0  1.3 0.12 0  1.32 0.12 0  1.34 0.12 0  1.36 0.12 0  1.38 0.12 0  1.4 0.12 0  1.42 0.12 0  1.44 0.12 0  1.46 0.12 0  1.48 0.12 0  1.5 0.12 0  1.52 0.12 0  1.54 0.12 0  1.56 0.12 0  1.58 0.12 0  1.6 0.12 0  1.62 0.12 0  1.64 0.12 0  1.66 0.12 0  1.68 0.12 0  1.7 0.12 0  1.72 0.12 0  1.74 0.12 0  1.76 0.12 0  1.78 0.12 0  1.8 0.12 0  1.82 0.12 0  1.84 0.12 0  1.86 0.12 0  1.88 0.12 0  1.9 0.12 0  1.92 0.12 0  1.94 0.12 0  1.96 0.12 0  1.98 0.12 0  2 0.12 0  0 0.14 0  0.02 0.14 0  0.04 0.14 0  0.06 0.14 0  0.08 0.14 0  0.1 0.14 0  0.12 0.14 0  0.14 0.14 0  0.16 0.14 0  0.18 0.14 0  0.2 0.14 0  0.22 0.14 0  0.24 0.14 0  0.26 0.14 0  0.28 0.14 0  0.3 0.14 0  0.32 0.14 0  0.34 0.14 0  0.36 0.14 0  0.38 0.14 0  0.4 0.14 0  0.42 0.14 0  0.44 0.14 0  0.46 0.14 0  0.48 0.14 0  0.5 0.14 0  0.52 0.14 0  0.54 0.14 0  0.5600000000000001 0.14 0  0.58 0.14 0  0.6 0.14 0  0.62 0.14 0  0.64 0.14 0  0.66 0.14 0  0.68 0.14 0  0.7 0.14 0  0.72 0.14 0  0.74 0.14 0  0.76 0.14 0  0.78 0.14 0  0.8 0.14 0  0.82 0.14 0  0.84 0.14 0  0.86 0.14 0  0.88 0.14 0  0.9 0.14 0  0.92 0.14 0  0.9399999999999999 0.14 0  0.96 0.14 0  0.98 0.14 0  1 0.14 0  1.02 0.14 0  1.04 0.14 0  1.06 0.14 0  1.08 0.14 0  1.1 0.14 0  1.12 0.14 0  1.14 0.14 0  1.16 0.14 0  1.18 0.14 0  1.2 0.14 0  1.22 0.14 0  1.24 0.14 0  1.26 0.14 0  1.28 0.14 0  1.3 0.14 0  1.32 0.14 0  1.34 0.14 0  1.36 0.14 0  1.38 0.14 0  1.4 0.14 0  1.42 0.14 0  1.44 0.14 0  1.46 0.14 0  1.48 0.14 0  1
[...]
<PointData  Scalars="sols[i]"> 
<DataArray  type="Float64"  Name="sols[i]"  format="ascii">1.3162662706201070e-03  8.7789677109498146e-04  8.7789677109498157e-04  8.7789677109498178e-04  8.7789677109498233e-04  8.7789677109498395e-04  8.7789677109498493e-04  8.7789677109498840e-04  8.7789677109499317e-04  8.7789677109499967e-04  8.7789677109501106e-04  8.7789677109502797e-04  8.7789677109505247e-04  8.7789677109508912e-04  8.7789677109514485e-04  8.7789677109522161e-04  8.7789677109533068e-04  8.7789677109548561e-04  8.7789677109569573e-04  8.7789677109598022e-04  8.7789677109636230e-04  8.7789677109686049e-04  8.7789677109750385e-04  8.7789677109832221e-04  8.7789677109934028e-04  8.7789677110058852e-04  8.7789677110209372e-04  8.7789677110387842e-04  8.7789677110596562e-04  8.7789677110836442e-04  8.7789677111109552e-04  8.7789677111417617e-04  8.7789677111762448e-04  8.7789677112146678e-04  8.7789677112574092e-04  8.7789677113048604e-04  8.7789677113576611e-04  8.7789677114165495e-04  8.7789677114823497e-04  8.7789677115560180e-04  8.7789677116386288e-04  8.7789677117312338e-04  8.7789677118350960e-04  8.7789677119516000e-04  8.7789677120823949e-04  8.7789677122297467e-04  8.7789677123970792e-04  8.7789677125897051e-04  8.7789677128163434e-04  8.7789677130906661e-04  8.7789677134333683e-04  8.7789677138742494e-04  8.7789677144535115e-04  8.7789677152212773e-04  8.7789677162339221e-04  8.7789677175459033e-04  8.7789677191966065e-04  8.7789677211928309e-04  8.7789677234913720e-04  8.7789677259855509e-04  8.7789677285032646e-04  8.7789677308211880e-04  8.7789677326956153e-04  8.7789677339050504e-04  8.7789677342942378e-04  8.7789677338070320e-04  8.7789677324980335e-04  8.7789677305194025e-04  8.7789677280876877e-04  8.7789677254409540e-04  8.7789677227994255e-04  8.7789677203369584e-04  8.7789677181680890e-04  8.7789677163489593e-04  8.7789677148874775e-04  8.7789677137577865e-04  8.7789677129147500e-04  8.7789677123058642e-04  8.7789677118795852e-04  8.7789677115901639e-04  8.7789677113997194e-04  8.7789677112785187e-04  8.7789677112038659e-04  8.7789677111593464e-04  8.7789677111332128e-04  8.7789677111172804e-04  8.7789677111061240e-04  8.7789677110963478e-04  8.7789677110860630e-04  8.7789677110744696e-04  8.7789677110615156e-04  8.7789677110476107e-04  8.7789677110333979e-04  8.7789677110196405e-04  8.7789677110068013e-04  8.7789677109954823e-04  8.7789677109860681e-04  8.7789677109787725e-04  8.7789677109737939e-04  8.7789677109713729e-04  2.6290112211709679e-03  8.7789677109498146e-04  4.3913710834283517e-04  4.3913710834283523e-04  4.3913710834283544e-04  4.3913710834283582e-04  4.3913710834283664e-04  4.3913710834283750e-04  4.3913710834283929e-04  4.3913710834284238e-04  4.3913710834284650e-04  4.3913710834285328e-04  4.3913710834286407e-04  4.3913710834287952e-04  4.3913710834290255e-04  4.3913710834293736e-04  4.3913710834298691e-04  4.3913710834305673e-04  4.3913710834315599e-04  4.3913710834329227e-04  4.3913710834347729e-04  4.3913710834372611e-04  4.3913710834405333e-04  4.3913710834447687e-04  4.3913710834501762e-04  4.3913710834569383e-04  4.3913710834652509e-04  4.3913710834753063e-04  4.3913710834872575e-04  4.3913710835012535e-04  4.3913710835173810e-04  4.3913710835357430e-04  4.3913710835564648e-04  4.3913710835796597e-04  4.3913710836054935e-04  4.3913710836342114e-04  4.3913710836660939e-04  4.3913710837015398e-04  4.3913710837410595e-04  4.3913710837852125e-04  4.3913710838346456e-04  4.3913710838900809e-04  4.3913710839522507e-04  4.3913710840219632e-04  4.3913710841001277e-04  4.3913710841877746e-04  4.3913710842862744e-04  4.3913710843976783e-04  4.3913710845252130e-04  4.3913710846741965e-04  4.3913710848532145e-04  4.3913710850755351e-04  4.3913710853607236e-04  4.3913710857358370e-04  4.3913710862355089e-04  4.3913710868999123e-04  4.3913710877695005e-04  4.3913710888759765e-04  4.3913710902298008e-04  4.3913710918067885e-04  4.3913710935374143e-04  4.3913710953037265e-04  4.3913710969482520e-04  4.3913710982955781e-04  4.3913710991833998e-04  4.3913710994954663e-04  4.3913710991868427e-04  4.3913710982934671e-04  4.3913710969230058e-04  4.3913710952304469e-04  4.3913710933865031e-04  4.3913710915483787e-04  4.3913710898392945e-04  4.3913710883392980e-04  4.3913710870864417e-04  4.3913710860845625e-04  4.3913710853139517e-04  4.3913710847418301e-04  4.3913710843307982e-04  4.3913710840446117e-04  4.3913710838514334e-04  4.3913710837251385e-04  4.3913710836453640e-04  4.3913710835967430e-04  4.3913710835681103e-04  4.3913710835515848e-04  4.3913710835416671e-04  4.3913710835347233e-04  4.3913710835284875e-04  4.3913710835217167e-04  4.3913710835139056e-04  4.3913710835050563e-04  4.3913710834954882e-04  4.3913710834856691e-04  4.3913710834761260e-04  4.3913710834672556e-04  4.3913710834594054e-04  4.3913710834528655e-04  4.3913710834477660e-04  4.3913710834442131e-04  4.3913710834423135e-04  8.7789677109748228e-04  8.7789677109498178e-04  4.3913710834283528e-04  4.3913710834283561e-04  4.3913710834283593e-04  4.3913710834283653e-04  4.3913710834283788e-04  4.3913710834283962e-04  4.3913710834284276e-04  4.3913710834284813e-04  4.3913710834285583e-04  4.3913710834286840e-04  4.3913710834288803e-04  4.3913710834291714e-04  4.3913710834296072e-04  4.3913710834302615e-04  4.3913710834312015e-04  4.3913710834325422e-04  4.3913710834344466e-04  4.3913710834370817e-04  4.3913710834406796e-04  4.3913710834455352e-04  4.3913710834519537e-04  4.3913710834603032e-04  4.3913710834709950e-04  4.3913710834844158e-04  4.3913710835009629e-04  4.3913710835210114e-04  4.3913710835448704e-04  4.3913710835728119e-04  4.3913710836050181e-04  4.3913710836416701e-04  4.3913710836829701e-04  4.3913710837291343e-04  4.3913710837804800e-04  4.3913710838374700e-04  4.3913710839006936e-04  4.3913710839709537e-04  4.3913710840492602e-04  4.3913710841367629e-04  4.3913710842347699e-04  4.3913710843447194e-04  4.3913710844680929e-04  4.3913710846064626e-04  4.3913710847615084e-04  4.3913710849350843e-04  4.3913710851295679e-04  4.3913710853484618e-04  4.3913710855974098e-04  4.3913710858859659e-04  4.3913710862300705e-04  4.3913710866552290e-04  4.3913710872002325e-04  4.3913710879203461e-04  4.3913710888884269e-04  4.3913710901915702e-04  4.3913710919206271e-04  4.3913710941507491e-04  4.3913710969134052e-04  4.3913711001649226e-04  4.3913711037604818e-04  4.3913711074455045e-04  4.3913711108748853e-04  4.3913711136625599e-04  4.3913711154535502e-04  4.3913711160001166e-04  4.3913711152186881e-04  4.3913711132083345e-04  4.3913711102245868e-04  4.3913711066188046e-04  4.3913711027642328e-04  4.3913710989913274e-04  4.3913710955465081e-04  4.3913710925779485e-04  4.3913710901436956e-04  4.3913710882326521e-04  4.3913710867895931e-04  4.3913710857377983e-04  4.3913710849960435e-04  4.3913710844893053e-04  4.3913710841540576e-04  4.3913710839397227e-04  4.3913710838078415e-04  4.3913710837300646e-04  4.3913710836861116e-04  4.3913710836618292e-04  4.3913710836475145e-04  4.3913710836368443e-04  4.3913710836260012e-04  4.3913710836130347e-04  4.3913710835973452e-04  4.3913710835792591e-04  4.3913710835596443e-04  4.3913710835395979e-04  4.3913710835202346e-04  4.3913710835024239e-04  4.3913710834868417e-04  4.3913710834739679e-04  4.3913710834640198e-04  4.3913710834571400e-04  4.3913710834534781e-04  8.7789677109929864e-04  8.7789677109498211e-04  4.3913710834283566e-04  4.3913710834283604e-04  4.3913710834283685e-04  4.3913710834283815e-04  4.3913710834284054e-04  4.3913710834284417e-04  4.3913710834285046e-04  4.3913710834286092e-04  4.3913710834287681e-04  4.3913710834290239e-04  4.3913710834294240e-04  4.3913710834300268e-04  4.3913710834309381e-04  4.3913710834323004e-04  4.3913710834342845e-04  4.3913710834371354e-04  4.3913710834411903e-04  4.3913710834468450e-04  4.3913710834546111e-04  4.3913710834651279e-04  4.3913710834791141e-04  4.3913710834973943e-04  4.3913710835208846e-04  4.3913710835504931e-04  4.3913710835871158e-04  4.3913710836315849e-04  4.3913710836845904e-04  4.3913710837467006e-04  4.3913710838183197e-04  4.3913710838997943e-04  4.3913710839915015e-04  4.3913710840938811e-04  4.3913710842076014e-04  4.3913710843336524e-04  4.3913710844733735e-04  4.3913710846285614e-04  4.3913710848014640e-04  4.3913710849946932e-04  4.3913710852112051e-04  4.3913710854542176e-04  4.3913710857270604e-04  4.3913710860331626e-04  4.3913710863760513e-04  4.3913710867594626e-04  4.3913710871879355e-04  4.3913710876680110e-04  4.3913710882104065e-04  4.3913710888338222e-04  4.3913710895706026e-04  4.3913710904744401e-04  4.3913710916297367e-04  4.3913710931606014e-04  4.3913710952357633e-04  4.3913710980634374e-04  4.3913711018688764e-04  4.3913711068487547e-04  4.3913711131021938e-04  4.3913711205495026e-04  4.3913711288620075e-04  4.3913711374349111e-04  4.3913711454316286e-04  4.3913711519081753e-04  4.3913711559973587e-04  4.3913711571042419e-04  4.3913711550502257e-04  4.3913711501141162e-04  4.3913711429553325e-04  4.3913711344503319e-04  4.3913711255021945e-04  4.3913711168825617e-04  4.3913711091399146e-04  4.3913711025780672e-04  4.3913710972876685e-04  4.3913710932048174e-04  4.3913710901743785e-04  4.3913710880034843e-04  4.3913710864991283e-04  4.3913710854899069e-04  4.3913710848351805e-04  4.3913710844259110e-04  4.3913710841810119e-04  4.3913710840418844e-04  4.3913710839671742e-04  4.3913710839282969e-04  4.3913710839059070e-04  4.3913710838875666e-04  4.3913710838659981e-04  4.3913710838377947e-04  4.3913710838023695e-04  4.3913710837610289e-04  4.3913710837161521e-04  4.3913710836704920e-04  4.3913710836266653e-04  4.3913710835867211e-04  4.3913710835521145e-04  4.3913710835237469e-04  4.3913710835019907e-04  4.3913710834870211e-04  4.3913710834790523e-04  8.7789677110358525e-04  8.7789677109498363e-04  4.3913710834283631e-04  4.3913710834283707e-04  4.3913710834283859e-04  4.3913710834284124e-04  4.3913710834284596e-04  4.3913710834285349e-04  4.3913710834286618e-04  4.3913710834288743e-04  4.3913710834292061e-04  4.3913710834297390e-04  4.3913710834305754e-04  4.3913710834318575e-04  4.3913710834338031e-04  4.3913710834367207e-04  4.3913710834410060e-04  4.3913710834472044e-04  4.3913710834560569e-04  4.3913710834684742e-04  4.3913710834856247e-04  4.3913710835089524e-04  4.3913710835401308e-04  4.3913710835810811e-04  4.3913710836339116e-04  4.3913710837007602e-04  4.3913710837837158e-04  4.3913710838846778e-04  4.3913710840052226e-04  4.3913710841465809e-04  4.3913710843096205e-04  4.3913710844950278e-04  4.3913710847035030e-04  4.3913710849359522e-04  4.3913710851938031e-04  4.3913710854792432e-04  4.3913710857953472e-04  4.3913710861462351e-04  4.3913710865370700e-04  4.3913710869739075e-04  4.3913710874635869e-04  4.3913710880135094e-04  4.3913710886313387e-04  4.3913710893248194e-04  4.3913710901016410e-04  4.3913710909695834e-04  4.3913710919375119e-04  4.3913710930177296e-04  4.3913710942306179e-04  4.3913710956129329e-04  4.3913710972308433e-04  4.3913710991985401e-04  4.3913711017019288e-04  4.3913711050234852e-04  4.3913711095595816e-04  4.3913711158153105e-04  4.3913711243570732e-04  4.3913711357048150e-04  4.3913711501593702e-04  4.3913711675895323e-04  4.3913711872396076e-04  4.3913712076447755e-04  4.3913712267339865e-04  4.3913712421477506e-04  4.3913712517184688e-04  4.3913712539830489e-04  4.3913712485564669e-04  4.3913712362238320e-04  4.3913712187145144e-04  4.3913711982537860e-04  4.3913711770644022e-04  4.3913711569762453e-04  4.3913711392237032e-04  4.3913711244261336e-04  4.3913711126942264e-04  4.3913711037913512e-04  4.3913710972936506e-04  4.3913710927167123e-04  4.3913710895986542e-04  4.3913710875436118e-04  4.3913710862360900e-04  4.3913710854374569e-04  4.3913710849738754e-04  4.3913710847218315e-04  4.3913710845951706e-04  4.3913710845347643e-04  4.3913710845009513e-04  4.3913710844685526e-04  4.3913710844233268e-04  4.3913710843593366e-04  4.3913710842767209e-04  4.3913710841796561e-04  4.3913710840744787e-04  4.3913710839680773e-04  4.3913710838667060e-04  4.3913710837751490e-04  4.3913710836965871e-04  4.3913710836327325e-04  4.3913710835841375e-04  4.3913710835508698e-04  4.3913710835331274e-04  8.7789677111267228e-04  8.7789677109498666e-04  4.3913710834283788e-04  4.3913710834283940e-04  4.3913710834284244e-04  4.3913710834284769e-04  4.3913710834285691e-04  4.3913710834287241e-04  4.3913710834289843e-04  4.3913710834294169e-04  4.3913710834301092e-04  4.3913710834312243e-04  4.3913710834329861e-04  4.3913710834357113e-04  4.3913710834398790e-04  4.3913710834461603e-04  4.3913710834554486e-04  4.3913710834689730e-04  4.3913710834883791e-04  4.3913710835157563e-04  4.3913710835537722e-04  4.3913710836057294e-04  4.3913710836755216e-04  4.3913710837676338e-04  4.3913710838869774e-04  4.3913710840385927e-04  4.3913710842273713e-04  4.3913710844577079e-04  4.3913710847331972e-04  4.3913710850565355e-04  4.3913710854295444e-04  4.3913710858535260e-04  4.3913710863297591e-04  4.3913710868600598e-04  4.3913710874474783e-04  4.3913710880968807e-04  4.3913710888153241e-04  4.3913710896123232e-04  4.3913710904998332e-04  4.3913710914919558e-04  4.3913710926045949e-04  4.3913710938549229e-04  4.3913710952606929e-04  4.3913710968396052e-04  4.3913710986087493e-04  4.3913711005845614e-04  4.3913711027843692e-04  4.3913711052308475e-04  4.3913711079616514e-04  4.3913711110473623e-04  4.3913711146211529e-04  4.3913711189231229e-04  4.3913711243596145e-04  4.3913711315703450e-04  4.3913711414837460e-04  4.3913711553234561e-04  4.3913711745129070e-04  4.3913712004234649e-04  4.3913712339425459e-04  4.3913712749141102e-04  4.3913713216090308e-04  4.3913713704652705e-04  4.3913714163240311e-04  4.3913714532460102e-04  4.3913714757720798e-04  4.3913714802786788e-04  4.3913714659561600e-04  4.3913714350108090e-04  4.3913713919998664e-04  4.3913713425951961e-04  4.3913712922751685e-04  4.3913712453670498e-04  4.3913712046175438e-04  4.3913711712354554e-04  4.3913711452267323e-04  4.3913711258300974e-04  4.3913711119161422e-04  4.3913711022824215e-04  4.3913710958324263e-04  4.3913710916579574e-04  4.3913710890555074e-04  4.3913710875056783e-04  4.3913710866375359e-04  4.3913710861915179e-04  4.3913710859882544e-04  4.3913710859052311e-04  4.3913710858607365e-04  4.3913710858035172e-04  4.3913710857057292e-04  4.3913710855575719e-04  4.3913710853625283e-04  4.3913710851327642e-04  4.3913710848847871e-04  4.3913710846356916e-04  4.3913710844003926e-04  4.3913710841899289e-04  4.3913710840111397e-04  4.3913710838671815e-04  4.3913710837585406e-04  4.3913710836845839e-04  4.3913710836450718e-04  8.7789677113144339e-04  8.7789677109499067e-04  4.3913710834284032e-04  4.3913710834284336e-04  4.3913710834284921e-04  4.3913710834285967e-04  4.3913710834287821e-04  4.3913710834290944e-04  4.3913710834296246e-04  4.3913710834305071e-04  4.3913710834319458e-04  4.3913710834342725e-04  4.3913710834379756e-04  4.3913710834437626e-04  4.3913710834526747e-04  4.3913710834661860e-04  4.3913710834863061e-04  4.3913710835157883e-04  4.3913710835583183e-04  4.3913710836186541e-04  4.3913710837028869e-04  4.3913710838185929e-04  4.3913710839748259e-04  4.3913710841820490e-04  4.3913710844517730e-04  4.3913710847958781e-04  4.3913710852258505e-04  4.3913710857519097e-04  4.3913710863822676e-04  4.3913710871228227e-04  4.3913710879772894e-04  4.3913710889479979e-04  4.3913710900371305e-04  4.3913710912481913e-04  4.3913710925876570e-04  4.3913710940663781e-04  4.3913710957005369e-04  4.3913710975121623e-04  4.3913710995290348e-04  4.3913711017840306e-04  4.3913711043142039e-04  4.3913711071595163e-04  4.3913711103612266e-04  4.3913711139601305e-04  4.3913711179947314e-04  4.3913711225002311e-04  4.3913711275104297e-04  4.3913711330657119e-04  4.3913711392323617e-04  4.3913711461407488e-04  4.3913711540516170e-04  4.3913711634600486e-04  4.3913711752418383e-04  4.3913711908311260e-04  4.3913712123870899e-04  4.3913712428599266e-04  4.3913712858153879e-04  4.3913713448571231e-04  4.3913714225512509e-04  4.3913715189551351e-04  4.3913716301558099e-04  4.3913717474819842e-04  4.3913718580356674e-04  4.3913719467955566e-04  4.3913719999390851e-04  4.3913720084486969e-04  4.3913719706984155e-04  4.3913718928807722e-04  4.3913717870446305e-04  4.3913716676684852e-04  4.3913715482279405e-04  4.3913714388776805e-04  4.3913713456071715e-04  4.3913712705951290e-04  4.3913712132172592e-04  4.3913711711999234e-04  4.3913711415975043e-04  4.3913711214641681e-04  4.3913711082251971e-04  4.3913710998185211e-04  4.3913710946915025e-04  4.3913710917250972e-04  4.3913710901353429e-04  4.3913710893809886e-04  4.3913710890905000e-04  4.3913710890105271e-04  4.3913710889724878e-04  4.3913710888719449e-04  4.3913710886548930e-04  4.3913710883069552e-04  4.3913710878430744e-04  4.3913710872970090e-04  4.3913710867110936e-04  4.3913710861273928e-04  4.3913710855812867e-04  4.3913710850979098e-04  4.3913710846916831e-04  4.3913710843679479e-04  4.3913710841258656e-04  4.3913710839621234e-04  4.3913710838745660e-04  8.7789677116979791e-04  8.7789677109500021e-04  4.3913710834284553e-04  4.3913710834285122e-04  4.3913710834286260e-04  4.3913710834288342e-04  4.3913710834292006e-04  4.3913710834298289e-04  4.3913710834309012e-04  4.3913710834327005e-04  4.3913710834356690e-04  4.3913710834405094e-04  4.3913710834482739e-04  4.3913710834605178e-04  4.3913710834795206e-04  4.3913710835085263e-04  4.3913710835520299e-04  4.3913710836161849e-04  4.3913710837092555e-04  4.3913710838420448e-04  4.3913710840284392e-04  4.3913710842858272e-04  4.3913710846352238e-04  4.3913710851010729e-04  4.3913710857104113e-04  4.3913710864912809e-04  4.3913710874707318e-04  4.3913710886725981e-04  4.3913710901156505e-04  4.3913710918127435e-04  4.3913710937712062e-04  4.3913710959947656e-04  4.3913710984866188e-04  4.3913711012531819e-04  4.3913711043080624e-04  4.3913711076754730e-04  4.3913711113925354e-04  4.3913711155103499e-04  4.3913711200936086e-04  4.3913711252189987e-04  4.3913711309729101e-04  4.3913711374484713e-04  4.3913711447418353e-04  4.3913711529476493e-04  4.3913711621537693e-04  4.3913711724368490e-04  4.3913711838629955e-04  4.3913711965007601e-04  4.3913712104583631e-04  4.3913712259629139e-04  4.3913712435055907e-04  4.3913712640809800e-04  4.3913712895423741e-04  4.3913713230627594e-04  4.3913713696167440e-04  4.3913714362720635e-04  4.3913715319237624e-04  4.3913716660055495e-04  4.3913718458311803e-04  4.3913720727244870e-04  4.3913723379735233e-04  4.3913726204605958e-04  4.3913728878280494e-04  4.3913731019149096e-04  4.3913732275361689e-04  4.3913732421362446e-04  4.3913731427051346e-04  4.3913729466277197e-04  4.3913726858676804e-04  4.3913723974170791e-04  4.3913721143063210e-04  4.3913718601059997e-04  4.3913716475006589e-04  4.3913714798412905e-04  4.3913713540716213e-04  4.3913712637230773e-04  4.3913712012585174e-04  4.3913711595576065e-04  4.3913711326469209e-04  4.3913711158994598e-04  4.3913711059291903e-04  4.3913711003535310e-04  4.3913710975338041e-04  4.3913710963512642e-04  4.3913710960403026e-04  4.3913710960775319e-04  4.3913710961143433e-04  4.3913710959375202e-04  4.3913710954435225e-04  4.3913710946168400e-04  4.3913710935073797e-04  4.3913710922059728e-04  4.3913710908199716e-04  4.3913710894521671e-04  4.3913710881859317e-04  4.3913710870777909e-04  4.3913710861572669e-04  4.3913710854318608e-04  4.3913710848948447e-04  4.3913710845342450e-04  4.3913710843414386e-04  8.7789677124753044e-04  8.7789677109501724e-04  4.3913710834285512e-04  4.3913710834286629e-04  4.3913710834288857e-04  4.3913710834292917e-04  4.3913710834300149e-04  4.3913710834312693e-04  4.3913710834334269e-04  4.3913710834370817e-04  4.3913710834431728e-04  4.3913710834531935e-04  4.3913710834694137e-04  4.3913710834952242e-04  4.3913710835356156e-04  4.3913710835977366e-04  4.3913710836915819e-04  4.3913710838308986e-04  4.3913710840342196e-04  4.3913710843259762e-04  4.3913710847377855e-04  4.3913710853095406e-04  4.39137108608