<?xml version="1.0"?>
<VTKFile type="UnstructuredGrid"  version="0.1"  >
<UnstructuredGrid>
<Piece  NumberOfPoints="5151" NumberOfCells="10000">
<Points>
<DataArray  type="Float64"  NumberOfComponents="3"  format="ascii">0 0 0  0.02 0 0  0.04 0 0  0.06 0 0  0.08 0 0  0.1 0 0  0.12 0 0  0.14 0 0  0.16 0 0  0.18 0 0  0.2 0 0  0.22 0 0  0.24 0 0  0.26 0 0  0.28 0 0  0.3 0 0  0.32 0 0  0.34 0 0  0.36 0 0  0.38 0 0  0.4 0 0  0.42 0 0  0.44 0 0  0.46 0 0  0.48 0 0  0.5 0 0  0.52 0 0  0.54 0 0  0.5600000000000001 0 0  0.58 0 0  0.6 0 0  0.62 0 0  0.64 0 0  0.66 0 0  0.68 0 0  0.7 0 0  0.72 0 0  0.74 0 0  0.76 0 0  0.78 0 0  0.8 0 0  0.82 0 0  0.84 0 0  0.86 0 0  0.88 0 0  0.9 0 0  0.92 0 0  0.9399999999999999 0 0  0.96 0 0  0.98 0 0  1 0 0  1.02 0 0  1.04 0 0  1.06 0 0  1.08 0 0  1.1 0 0  1.12 0 0  1.14 0 0  1.16 0 0  1.18 0 0  1.2 0 0  1.22 0 0  1.24 0 0  1.26 0 0  1.28 0 0  1.3 0 0  1.32 0 0  1.34 0 0  1.36 0 0  1.38 0 0  1.4 0 0  1.42 0 0  1.44 0 0  1.46 0 0  1.48 0 0  1.5 0 0  1.52 0 0  1.54 0 0  1.56 0 0  1.58 0 0  1.6 0 0  1.62 0 0  1.64 0 0  1.66 0 0  1.68 0 0  1.7 0 0  1.72 0 0  1.74 0 0  1.76 0 0  1.78 0 0  1.8 0 0  1.82 0 0  1.84 0 0  1.86 0 0  1.88 0 0  1.9 0 0  1.92 0 0  1.94 0 0  1.96 0 0  1.98 0 0  2 0 0  0 0.02 0  0.02 0.02 0  0.04 0.02 0  0.06 0.02 0  0.08 0.02 0  0.1 0.02 0  0.12 0.02 0  0.14 0.02 0  0.16 0.02 0  0.18 0.02 0  0.2 0.02 0  0.22 0.02 0  0.24 0.02 0  0.26 0.02 0  0.28 0.02 0  0.3 0.02 0  0.32 0.02 0  0.34 0.02 0  0.36 0.02 0  0.38 0.02 0  0.4 0.02 0  0.42 0.02 0  0.44 0.02 0  0.46 0.02 0  0.48 0.02 0  0.5 0.02 0  0.52 0.02 0  0.54 0.02 0  0.5600000000000001 0.02 0  0.58 0.02 0  0.6 0.02 0  0.62 0.02 0  0.64 0.02 0  0.66 0.02 0  0.68 0.02 0  0.7 0.02 0  0.72 0.02 0  0.74 0.02 0  0.76 0.02 0  0.78 0.02 0  0.8 0.02 0  0.82 0.02 0  0.84 0.02 0  0.86 0.02 0  0.88 0.02 0  0.9 0.02 0  0.92 0.02 0  0.9399999999999999 0.02 0  0.96 0.02 0  0.98 0.02 0  1 0.02 0  1.02 0.02 0  1.04 0.02 0  1.06 0.02 0  1.08 0.02 0  1.1 0.02 0  1.12 0.02 0  1.14 0.02 0  1.16 0.02 0  1.18 0.02 0  1.2 0.02 0  1.22 0.02 0  1.24 0.02 0  1.26 0.02 0  1.28 0.02 0  1.3 0.02 0  1.32 0.02 0  1.34 0.02 0  1.36 0.02 0  1.38 0.02 0  1.4 0.02 0  1.42 0.02 0  1.44 0.02 0  1.46 0.02 0  1.48 0.02 0  1.5 0.02 0  1.52 0.02 0  1.54 0.02 0  1.56 0.02 0  1.58 0.02 0  1.6 0.02 0  1.62 0.02 0  1.64 0.02 0  1.66 0.02 0  1.68 0.02 0  1.7 0.02 0  1.72 0.02 0  1.74 0.02 0  1.76 0.02 0  1.78 0.02 0  1.8 0.02 0  1.82 0.02 0  1.84 0.02 0  1.86 0.02 0  1.88 0.02 0  1.9 0.02 0  1.92 0.02 0  1.94 0.02 0  1.96 0.02 0  1.98 0.02 0  2 0.02 0  0 0.04 0  0.02 0.04 0  0.04 0.04 0  0.06 0.04 0  0.08 0.04 0  0.1 0.04 0  0.12 0.04 0  0.14 0.04 0  0.16 0.04 0  0.18 0.04 0  0.2 0.04 0  0.22 0.04 0  0.24 0.04 0  0.26 0.04 0  0.28 0.04 0  0.3 0.04 0  0.32 0.04 0  0.34 0.04 0  0.36 0.04 0  0.38 0.04 0  0.4 0.04 0  0.42 0.04 0  0.44 0.04 0  0.46 0.04 0  0.48 0.04 0  0.5 0.04 0  0.52 0.04 0  0.54 0.04 0  0.5600000000000001 0.04 0  0.58 0.04 0  0.6 0.04 0  0.62 0.04 0  0.64 0.04 0  0.66 0.04 0  0.68 0.04 0  0.7 0.04 0  0.72 0.04 0  0.74 0.04 0  0.76 0.04 0  0.78 0.04 0  0.8 0.04 0  0.82 0.04 0  0.84 0.04 0  0.86 0.04 0  0.88 0.04 0  0.9 0.04 0  0.92 0.04 0  0.9399999999999999 0.04 0  0.96 0.04 0  0.98 0.04 0  1 0.04 0  1.02 0.04 0  1.04 0.04 0  1.06 0.04 0  1.08 0.04 0  1.1 0.04 0  1.12 0.04 0  1.14 0.04 0  1.16 0.04 0  1.18 0.04 0  1.2 0.04 0  1.22 0.04 0  1.24 0.04 0  1.26 0.04 0  1.28 0.04 0  1.3 0.04 0  1.32 0.04 0  1.34 0.04 0  1.36 0.04 0  1.38 0.04 0  1.4 0.04 0  1.42 0.04 0  1.44 0.04 0  1.46 0.04 0  1.48 0.04 0  1.5 0.04 0  1.52 0.04 0  1.54 0.04 0  1.56 0.04 0  1.58 0.04 0  1.6 0.04 0  1.62 0.04 0  1.64 0.04 0  1.66 0.04 0  1.68 0.04 0  1.7 0.04 0  1.72 0.04 0  1.74 0.04 0  1.76 0.04 0  1.78 0.04 0  1.8 0.04 0  1.82 0.04 0  1.84 0.04 0  1.86 0.04 0  1.88 0.04 0  1.9 0.04 0  1.92 0.04 0  1.94 0.04 0  1.96 0.04 0  1.98 0.04 0  2 0.04 0  0 0.06 0  0.02 0.06 0  0.04 0.06 0  0.06 0.06 0  0.08 0.06 0  0.1 0.06 0  0.12 0.06 0  0.14 0.06 0  0.16 0.06 0  0.18 0.06 0  0.2 0.06 0  0.22 0.06 0  0.24 0.06 0  0.26 0.06 0  0.28 0.06 0  0.3 0.06 0  0.32 0.06 0  0.34 0.06 0  0.36 0.06 0  0.38 0.06 0  0.4 0.06 0  0.42 0.06 0  0.44 0.06 0  0.46 0.06 0  0.48 0.06 0  0.5 0.06 0  0.52 0.06 0  0.54 0.06 0  0.5600000000000001 0.06 0  0.58 0.06 0  0.6 0.06 0  0.62 0.06 0  0.64 0.06 0  0.66 0.06 0  0.68 0.06 0  0.7 0.06 0  0.72 0.06 0  0.74 0.06 0  0.76 0.06 0  0.78 0.06 0  0.8 0.06 0  0.82 0.06 0  0.84 0.06 0  0.86 0.06 0  0.88 0.06 0  0.9 0.06 0  0.92 0.06 0  0.9399999999999999 0.06 0  0.96 0.06 0  0.98 0.06 0  1 0.06 0  1.02 0.06 0  1.04 0.06 0  1.06 0.06 0  1.08 0.06 0  1.1 0.06 0  1.12 0.06 0  1.14 0.06 0  1.16 0.06 0  1.18 0.06 0  1.2 0.06 0  1.22 0.06 0  1.24 0.06 0  1.26 0.06 0  1.28 0.06 0  1.3 0.06 0  1.32 0.06 0  1.34 0.06 0  1.36 0.06 0  1.38 0.06 0  1.4 0.06 0  1.42 0.06 0  1.44 0.06 0  1.46 0.06 0  1.48 0.06 0  1.5 0.06 0  1.52 0.06 0  1.54 0.06 0  1.56 0.06 0  1.58 0.06 0  1.6 0.06 0  1.62 0.06 0  1.64 0.06 0  1.66 0.06 0  1.68 0.06 0  1.7 0.06 0  1.72 0.06 0  1.74 0.06 0  1.76 0.06 0  1.78 0.06 0  1.8 0.06 0  1.82 0.06 0  1.84 0.06 0  1.86 0.06 0  1.88 0.06 0  1.9 0.06 0  1.92 0.06 0  1.94 0.06 0  1.96 0.06 0  1.98 0.06 0  2 0.06 0  0 0.08 0  0.02 0.08 0  0.04 0.08 0  0.06 0.08 0  0.08 0.08 0  0.1 0.08 0  0.12 0.08 0  0.14 0.08 0  0.16 0.08 0  0.18 0.08 0  0.2 0.08 0  0.22 0.08 0  0.24 0.08 0  0.26 0.08 0  0.28 0.08 0  0.3 0.08 0  0.32 0.08 0  0.34 0.08 0  0.36 0.08 0  0.38 0.08 0  0.4 0.08 0  0.42 0.08 0  0.44 0.08 0  0.46 0.08 0  0.48 0.08 0  0.5 0.08 0  0.52 0.08 0  0.54 0.08 0  0.5600000000000001 0.08 0  0.58 0.08 0  0.6 0.08 0  0.62 0.08 0  0.64 0.08 0  0.66 0.08 0  0.68 0.08 0  0.7 0.08 0  0.72 0.08 0  0.74 0.08 0  0.76 0.08 0  0.78 0.08 0  0.8 0.08 0  0.82 0.08 0  0.84 0.08 0  0.86 0.08 0  0.88 0.08 0  0.9 0.08 0  0.92 0.08 0  0.9399999999999999 0.08 0  0.96 0.08 0  0.98 0.08 0  1 0.08 0  1.02 0.08 0  1.04 0.08 0  1.06 0.08 0  1.08 0.08 0  1.1 0.08 0  1.12 0.08 0  1.14 0.08 0  1.16 0.08 0  1.18 0.08 0  1.2 0.08 0  1.22 0.08 0  1.24 0.08 0  1.26 0.08 0  1.28 0.08 0  1.3 0.08 0  1.32 0.08 0  1.34 0.08 0  1.36 0.08 0  1.38 0.08 0  1.4 0.08 0  1.42 0.08 0  1.44 0.08 0  1.46 0.08 0  1.48 0.08 0  1.5 0.08 0  1.52 0.08 0  1.54 0.08 0  1.56 0.08 0  1.58 0.08 0  1.6 0.08 0  1.62 0.08 0  1.64 0.08 0  1.66 0.08 0  1.68 0.08 0  1.7 0.08 0  1.72 0.08 0  1.74 0.08 0  1.76 0.08 0  1.78 0.08 0  1.8 0.08 0  1.82 0.08 0  1.84 0.08 0  1.86 0.08 0  1.88 0.08 0  1.9 0.08 0  1.92 0.08 0  1.94 0.08 0  1.96 0.08 0  1.98 0.08 0  2 0.08 0  0 0.1 0  0.02 0.1 0  0.04 0.1 0  0.06 0.1 0  0.08 0.1 0  0.1 0.1 0  0.12 0.1 0  0.14 0.1 0  0.16 0.1 0  0.18 0.1 0  0.2 0.1 0  0.22 0.1 0  0.24 0.1 0  0.26 0.1 0  0.28 0.1 0  0.3 0.1 0  0.32 0.1 0  0.34 0.1 0  0.36 0.1 0  0.38 0.1 0  0.4 0.1 0  0.42 0.1 0  0.44 0.1 0  0.46 0.1 0  0.48 0.1 0  0.5 0.1 0  0.52 0.1 0  0.54 0.1 0  0.5600000000000001 0.1 0  0.58 0.1 0  0.6 0.1 0  0.62 0.1 0  0.64 0.1 0  0.66 0.1 0  0.68 0.1 0  0.7 0.1 0  0.72 0.1 0  0.74 0.1 0  0.76 0.1 0  0.78 0.1 0  0.8 0.1 0  0.82 0.1 0  0.84 0.1 0  0.86 0.1 0  0.88 0.1 0  0.9 0.1 0  0.92 0.1 0  0.9399999999999999 0.1 0  0.96 0.1 0  0.98 0.1 0  1 0.1 0  1.02 0.1 0  1.04 0.1 0  1.06 0.1 0  1.08 0.1 0  1.1 0.1 0  1.12 0.1 0  1.14 0.1 0  1.16 0.1 0  1.18 0.1 0  1.2 0.1 0  1.22 0.1 0  1.24 0.1 0  1.26 0.1 0  1.28 0.1 0  1.3 0.1 0  1.32 0.1 0  1.34 0.1 0  1.36 0.1 0  1.38 0.1 0  1.4 0.1 0  1.42 0.1 0  1.44 0.1 0  1.46 0.1 0  1.48 0.1 0  1.5 0.1 0  1.52 0.1 0  1.54 0.1 0  1.56 0.1 0  1.58 0.1 0  1.6 0.1 0  1.62 0.1 0  1.64 0.1 0  1.66 0.1 0  1.68 0.1 0  1.7 0.1 0  1.72 0.1 0  1.74 0.1 0  1.76 0.1 0  1.78 0.1 0  1.8 0.1 0  1.82 0.1 0  1.84 0.1 0  1.86 0.1 0  1.88 0.1 0  1.9 0.1 0  1.92 0.1 0  1.94 0.1 0  1.96 0.1 0  1.98 0.1 0  2 0.1 0  0 0.12 0  0.02 0.12 0  0.04 0.12 0  0.06 0.12 0  0.08 0.12 0  0.1 0.12 0  0.12 0.12 0  0.14 0.12 0  0.16 0.12 0  0.18 0.12 0  0.2 0.12 0  0.22 0.12 0  0.24 0.12 0  0.26 0.12 0  0.28 0.12 0  0.3 0.12 0  0.32 0.12 0  0.34 0.12 0  0.36 0.12 0  0.38 0.12 0  0.4 0.12 0  0.42 0.12 0  0.44 0.12 0  0.46 0.12 0  0.48 0.12 0  0.5 0.12 0  0.52 0.12 0  0.54 0.12 0  0.5600000000000001 0.12 0  0.58 0.12 0  0.6 0.12 0  0.62 0.12 0  0.64 0.12 0  0.66 0.12 0  0.68 0.12 0  0.7 0.12 0  0.72 0.12 0  0.74 0.12 0  0.76 0.12 0  0.78 0.12 0  0.8 0.12 0  0.82 0.12 0  0.84 0.12 0  0.86 0.12 0  0.88 0.12 0  0.9 0.12 0  0.92 0.12 0  0.9399999999999999 0.12 0  0.96 0.12 0  0.98 0.12 0  1 0.12 0  1.02 0.12 0  1.04 0.12 0  1.06 0.12 0  1.08 0.12 0  1.1 0.12 0  1.12 0.12 0  1.14 0.12 0  1.16 0.12 0  1.18 0.12 0  1.2 0.12 0  1.22 0.12 0  1.24 0.12 0  1.26 0.12 0  1.28 0.12 0  1.3 0.12 0  1.32 0.12 0  1.34 0.12 0  1.36 0.12 0  1.38 0.12 0  1.4 0.12 0  1.42 0.12 0  1.44 0.12 0  1.46 0.12 0  1.48 0.12 0  1.5 0.12 0  1.52 0.12 0  1.54 0.12 0  1.56 0.12 0  1.58 0.12 0  1.6 0.12 0  1.62 0.12 0  1.64 0.12 0  1.66 0.12 0  1.68 0.12 0  1.7 0.12 0  1.72 0.12 0  1.74 0.12 0  1.76 0.12 0  1.78 0.12 0  1.8 0.12 0  1.82 0.12 0  1.84 0.12 0  1.86 0.12 0  1.88 0.12 0  1.9 0.12 0  1.92 0.12 0  1.94 0.12 0  1.96 0.12 0  1.98 0.12 0  2 0.12 0  0 0.14 0  0.02 0.14 0  0.04 0.14 0  0.06 0.14 0  0.08 0.14 0  0.1 0.14 0  0.12 0.14 0  0.14 0.14 0  0.16 0.14 0  0.18 0.14 0  0.2 0.14 0  0.22 0.14 0  0.24 0.14 0  0.26 0.14 0  0.28 0.14 0  0.3 0.14 0  0.32 0.14 0  0.34 0.14 0  0.36 0.14 0  0.38 0.14 0  0.4 0.14 0  0.42 0.14 0  0.44 0.14 0  0.46 0.14 0  0.48 0.14 0  0.5 0.14 0  0.52 0.14 0  0.54 0.14 0  0.5600000000000001 0.14 0  0.58 0.14 0  0.6 0.14 0  0.62 0.14 0  0.64 0.14 0  0.66 0.14 0  0.68 0.14 0  0.7 0.14 0  0.72 0.14 0  0.74 0.14 0  0.76 0.14 0  0.78 0.14 0  0.8 0.14 0  0.82 0.14 0  0.84 0.14 0  0.86 0.14 0  0.88 0.14 0  0.9 0.14 0  0.92 0.14 0  0.9399999999999999 0.14 0  0.96 0.14 0  0.98 0.14 0  1 0.14 0  1.02 0.14 0  1.04 0.14 0  1.06 0.14 0  1.08 0.14 0  1.1 0.14 0  1.12 0.14 0  1.14 0.14 0  1.16 0.14 0  1.18 0.14 0  1.2 0.14 0  1.22 0.14 0  1.24 0.14 0  1.26 0.14 0  1.28 0.14 0  1.3 0.14 0  1.32 0.14 0  1.34 0.14 0  1.36 0.14 0  1.38 0.14 0  1.4 0.14 0  1.42 0.14 0  1.44 0.14 0  1.46 0.14 0  1.48 0.14 0  1
[...]
<PointData  Scalars="sols[i]"> 
<DataArray  type="Float64"  Name="sols[i]"  format="ascii">8.3265081768184204e-04  5.5525154033946717e-04  5.5525154045688605e-04  5.5525154069734702e-04  5.5525154115892788e-04  5.5525154202239939e-04  5.5525154361338368e-04  5.5525154650872270e-04  5.5525155171583988e-04  5.5525156097122107e-04  5.5525157723232649e-04  5.5525160548470425e-04  5.5525165406971678e-04  5.5525173689212012e-04  5.5525187715686156e-04  5.5525211383055154e-04  5.5525251302147209e-04  5.5525318819718973e-04  5.5525433588937559e-04  5.5525629729963214e-04  5.5525966022247489e-04  5.5526541734024785e-04  5.5527519063820925e-04  5.5529150848478777e-04  5.5531807205592466e-04  5.5535986921577960e-04  5.5542290843222698e-04  5.5551331609286401e-04  5.5563567061863480e-04  5.5579081378756871e-04  5.5597388185884113e-04  5.5617352510656010e-04  5.5637296901619039e-04  5.5655294631039081e-04  5.5669563957231715e-04  5.5678802504356586e-04  5.5682337175380040e-04  5.5680110853850479e-04  5.5672627286946932e-04  5.5660885377176498e-04  5.5646232718876097e-04  5.5630132088318747e-04  5.5613915525517209e-04  5.5598611290387880e-04  5.5584877710406562e-04  5.5573029322938928e-04  5.5563115572291580e-04  5.5555012853383237e-04  5.5548505411264360e-04  5.5543345086271493e-04  5.5539289121647923e-04  5.5536120089457754e-04  5.5533653523992435e-04  5.5531738272352285e-04  5.5530253213842060e-04  5.5529102654857797e-04  5.5528211649648871e-04  5.5527521807868872e-04  5.5526987772656813e-04  5.5526574368373091e-04  5.5526254338493270e-04  5.5526006572762519e-04  5.5525814726682242e-04  5.5525666149446550e-04  5.5525551052034220e-04  5.5525461861680202e-04  5.5525392720966193e-04  5.5525339099314359e-04  5.5525297492008672e-04  5.5525265187399250e-04  5.5525240087160913e-04  5.5525220567704842e-04  5.5525205373389939e-04  5.5525193534164386e-04  5.5525184301846860e-04  5.5525177100523046e-04  5.5525171487578063e-04  5.5525167122789530e-04  5.5525163743691791e-04  5.5525161146060978e-04  5.5525159168805260e-04  5.5525157682737958e-04  5.5525156582691103e-04  5.5525155782307743e-04  5.5525155210728826e-04  5.5525154810422389e-04  5.5525154535542183e-04  5.5525154350429635e-04  5.5525154228097955e-04  5.5525154148695324e-04  5.5525154098022783e-04  5.5525154066193372e-04  5.5525154046493061e-04  5.5525154034467080e-04  5.5525154027219958e-04  5.5525154022908248e-04  5.5525154020379054e-04  5.5525154018925768e-04  5.5525154018128586e-04  5.5525154017755166e-04  1.6639227009675561e-03  5.5525154032762974e-04  2.7769793465326660e-04  2.7769793471624362e-04  2.7769793484839909e-04  2.7769793510485020e-04  2.7769793558858765e-04  2.7769793648682297e-04  2.7769793813387471e-04  2.7769794111790332e-04  2.7769794645921101e-04  2.7769795590428057e-04  2.7769797240660650e-04  2.7769800091158905e-04  2.7769804964689944e-04  2.7769813227991309e-04  2.7769827161386269e-04  2.7769850608542817e-04  2.7769890140353167e-04  2.7769957148983415e-04  2.7770071562530140e-04  2.7770268211543603e-04  2.7770607144554486e-04  2.7771189018869759e-04  2.7772175418302374e-04  2.7773810687516825e-04  2.7776436052345197e-04  2.7780479383603129e-04  2.7786399224594773e-04  2.7794568186516213e-04  2.7805107643264865e-04  2.7817729088777508e-04  2.7831660203509790e-04  2.7845709173272913e-04  2.7858478091293410e-04  2.7868666323505422e-04  2.7875330128980286e-04  2.7877986944656216e-04  2.7876585022572825e-04  2.7871461158762907e-04  2.7863312716056054e-04  2.7853101415998589e-04  2.7841878979568236e-04  2.7830599464801175e-04  2.7819990587124290e-04  2.7810508326782152e-04  2.7802360928832240e-04  2.7795569977242455e-04  2.7790038458852371e-04  2.7785608665989756e-04  2.7782103846700447e-04  2.7779353788137673e-04  2.7777207711336856e-04  2.7775538729726850e-04  2.7774243488087869e-04  2.7773239514704891e-04  2.7772461837608745e-04  2.7771859667853545e-04  2.7771393483160868e-04  2.7771032605273090e-04  2.7770753252052646e-04  2.7770536999496609e-04  2.7770369579712941e-04  2.7770239946528572e-04  2.7770139550513541e-04  2.7770061776589316e-04  2.7770001507656567e-04  2.7769954785949465e-04  2.7769918550351794e-04  2.7769890432897102e-04  2.7769868601395094e-04  2.7769851637956405e-04  2.7769838445369809e-04  2.7769828174994585e-04  2.7769820171180221e-04  2.7769813928286800e-04  2.7769809057231223e-04  2.7769805259185589e-04  2.7769802304668977e-04  2.7769800016820567e-04  2.7769798258096866e-04  2.7769796919947256e-04  2.7769795915156197e-04  2.7769795172510441e-04  2.7769794633337471e-04  2.7769794249361737e-04  2.7769793981329195e-04  2.7769793797962391e-04  2.7769793674974725e-04  2.7769793594040768e-04  2.7769793541734106e-04  2.7769793508496598e-04  2.7769793487706756e-04  2.7769793474891812e-04  2.7769793467099585e-04  2.7769793462421519e-04  2.7769793459647712e-04  2.7769793458025182e-04  2.7769793457093733e-04  2.7769793456579821e-04  2.7769793456329365e-04  5.5525154017749289e-04  5.5525154040522533e-04  2.7769793469822115e-04  2.7769793479436700e-04  2.7769793499809515e-04  2.7769793539768366e-04  2.7769793616036633e-04  2.7769793759403532e-04  2.7769794025540135e-04  2.7769794513539869e-04  2.7769795397094481e-04  2.7769796976007469e-04  2.7769799760077383e-04  2.7769804604452285e-04  2.7769812928050795e-04  2.7769827070640152e-04  2.7769850892752913e-04  2.7769890821854149e-04  2.7769957744443825e-04  2.7770070507513904e-04  2.7770262403365760e-04  2.7770592893041517e-04  2.7771167784026231e-04  2.7772171423426519e-04  2.7773912655894230e-04  2.7776879857694173e-04  2.7781786820300322e-04  2.7789571034643901e-04  2.7801287621692146e-04  2.7817848583077645e-04  2.7839621217464410e-04  2.7866028486556209e-04  2.7895359721697181e-04  2.7924916024548986e-04  2.7951534276451098e-04  2.7972356003637562e-04  2.7985452336102255e-04  2.7989975840805290e-04  2.7985951802368371e-04  2.7974173244864364e-04  2.7956228418778042e-04  2.7934293896828694e-04  2.7910694152555651e-04  2.7887447437657207e-04  2.7865998811570558e-04  2.7847166127004108e-04  2.7831239866151701e-04  2.7818145921921356e-04  2.7807601145482649e-04  2.7799232724979819e-04  2.7792656978894694e-04  2.7787522820127880e-04  2.7783529882702181e-04  2.7780431556199346e-04  2.7778030436248659e-04  2.7776170866172990e-04  2.7774731171347915e-04  2.7773616712410324e-04  2.7772754069992322e-04  2.7772086355245997e-04  2.7771569510784178e-04  2.7771169423122083e-04  2.7770859681271469e-04  2.7770619841636414e-04  2.7770434084211997e-04  2.7770290170617262e-04  2.7770178635605031e-04  2.7770092159485590e-04  2.7770025081292921e-04  2.7769973021799090e-04  2.7769932592212426e-04  2.7769901169553393e-04  2.7769876723727837e-04  2.7769857684476558e-04  2.7769842838894698e-04  2.7769831252191400e-04  2.7769822205924664e-04  2.7769815149246977e-04  2.7769809659879358e-04  2.7769805412632381e-04  2.7769802154228174e-04  2.7769799683800112e-04  2.7769797838652168e-04  2.7769796484681408e-04  2.7769795510510431e-04  2.7769794824107413e-04  2.7769794350690469e-04  2.7769794031008661e-04  2.7769793819507245e-04  2.7769793682262672e-04  2.7769793594801064e-04  2.7769793539990085e-04  2.7769793506166257e-04  2.7769793485587558e-04  2.7769793473230548e-04  2.7769793465900892e-04  2.7769793461604816e-04  2.7769793459119370e-04  2.7769793457707391e-04  2.7769793456935960e-04  2.7769793456563954e-04  5.5525154018095876e-04  5.5525154054890976e-04  2.7769793478375104e-04  2.7769793494449697e-04  2.7769793528828945e-04  2.7769793597068446e-04  2.7769793729017146e-04  2.7769793980398993e-04  2.7769794453387579e-04  2.7769795332320589e-04  2.7769796944368308e-04  2.7769799860407349e-04  2.7769805059340143e-04  2.7769814191182999e-04  2.7769829994143719e-04  2.7769856958183563e-04  2.7769902405636374e-04  2.7769978330981579e-04  2.7770104712875049e-04  2.7770315768006179e-04  2.7770672023683655e-04  2.7771283385313585e-04  2.7772351433140408e-04  2.7774241725404976e-04  2.7777595313572471e-04  2.7783476122941845e-04  2.7793518398403080e-04  2.7809981623605679e-04  2.7835553939550275e-04  2.7872728741986855e-04  2.7922729815606099e-04  2.7984385391565796e-04  2.8053571432577680e-04  2.8123511750045930e-04  2.8186150863013698e-04  2.8234350988071057e-04  2.8263654175848422e-04  2.8272460812042119e-04  2.8261058541672641e-04  2.8231386922535691e-04  2.8187464541505164e-04  2.8134844190453662e-04  2.8079317995463224e-04  2.8025671555951512e-04  2.7977093634057537e-04  2.7935171638658477e-04  2.7900255043126652e-04  2.7871916070484881e-04  2.7849332851781516e-04  2.7831556016287779e-04  2.7817670680553688e-04  2.7806874654133143e-04  2.7798501704781110e-04  2.7792016202680167e-04  2.7786995617340362e-04  2.7783109958597930e-04  2.7780102836392822e-04  2.7777775592288960e-04  2.7775974465865959e-04  2.7774580469154515e-04  2.7773501518549163e-04  2.7772666341529048e-04  2.7772019769862360e-04  2.7771519108142298e-04  2.7771131323908982e-04  2.7770830868796846e-04  2.7770597987831987e-04  2.7770417406659326e-04  2.7770277313154571e-04  2.7770168569327223e-04  2.7770084102922161e-04  2.7770018438790471e-04  2.7769967338537997e-04  2.7769927523557485e-04  2.7769896461868473e-04  2.7769872203349310e-04  2.7769853251155465e-04  2.7769838459805940e-04  2.7769826952978521e-04  2.7769818056572990e-04  2.7769811244804799e-04  2.7769806098525113e-04  2.7769802275299735e-04  2.7769799490096590e-04  2.7769797504304189e-04  2.7769796120028769e-04  2.7769795176708754e-04  2.7769794547944125e-04  2.7769794137570122e-04  2.7769793874939499e-04  2.7769793709872249e-04  2.7769793607823747e-04  2.7769793545676580e-04  2.7769793508345330e-04  2.7769793486202550e-04  2.7769793473222975e-04  2.7769793465701621e-04  2.7769793461397370e-04  2.7769793458977095e-04  2.7769793457666869e-04  2.7769793457040141e-04  5.5525154018828786e-04  5.5525154079445987e-04  2.7769793493185398e-04  2.7769793520721921e-04  2.7769793580191435e-04  2.7769793699634936e-04  2.7769793933575239e-04  2.7769794385252894e-04  2.7769795246732147e-04  2.7769796869559084e-04  2.7769799886414790e-04  2.7769805415574022e-04  2.7769815396004209e-04  2.7769833123188995e-04  2.7769864088237126e-04  2.7769917278195830e-04  2.7770007211232786e-04  2.7770157254692815e-04  2.7770405432919764e-04  2.7770815427953738e-04  2.7771498574794191e-04  2.7772658335310703e-04  2.7774677530099072e-04  2.7778278716338446e-04  2.7784791836245814e-04  2.7796542831287613e-04  2.7817304178016168e-04  2.7852597293674875e-04  2.7909416545371168e-04  2.7994786252532727e-04  2.8112830831993914e-04  2.8261492258310414e-04  2.8430822188929583e-04  2.8603318000010287e-04  2.8757404829902734e-04  2.8874102660365761e-04  2.8942564294428635e-04  2.8960028711725455e-04  2.8927588861953031e-04  2.8849893448278888e-04  2.8737771138802781e-04  2.8606329277279253e-04  2.8470749966122731e-04  2.8342708772070450e-04  2.8229247086161756e-04  2.8133209964785141e-04  2.8054526595142808e-04  2.7991521910587477e-04  2.7941845416141271e-04  2.7903050729489597e-04  2.7872917759940238e-04  2.7849577343489742e-04  2.7831519671917058e-04  2.7817554054628837e-04  2.7806753400629405e-04  2.7798399460728611e-04  2.7791936897231636e-04  2.7786936795568218e-04  2.7783067817775285e-04  2.7780073830035453e-04  2.7777756749500286e-04  2.7775963325345492e-04  2.7774574966515464e-04  2.7773499920937504e-04  2.7772667224780479e-04  2.7772022009194761e-04  2.7771521859883260e-04  2.7771133989656671e-04  2.7770833045390588e-04  2.7770599412789003e-04  2.7770417909237741e-04  2.7770276778165250e-04  2.7770166916749457e-04  2.7770081282940998e-04  2.7770014439484528e-04  2.7769962201654283e-04  2.7769921362083252e-04  2.7769889471683073e-04  2.7769864661356786e-04  2.7769845495209401e-04  2.7769830851389048e-04  2.7769819830149675e-04  2.7769811689210819e-04  2.7769805804163822e-04  2.7769801648198461e-04  2.7769798783211969e-04  2.7769796854799174e-04  2.7769795586191000e-04  2.7769794769329345e-04  2.7769794253596262e-04  2.7769793933742906e-04  2.7769793738540019e-04  2.7769793621127949e-04  2.7769793551431758e-04  2.7769793510558832e-04  2.7769793486860081e-04  2.7769793473270924e-04  2.7769793465572324e-04  2.7769793461284418e-04  2.7769793458982630e-04  2.7769793457888524e-04  5.5525154020142579e-04  5.5525154119759822e-04  2.7769793517754004e-04  2.7769793564827656e-04  2.7769793667512373e-04  2.7769793876188342e-04  2.7769794290158942e-04  2.7769795100224108e-04  2.7769796666765221e-04  2.7769799659669670e-04  2.7769805303249484e-04  2.7769815794105162e-04  2.7769834994223914e-04  2.7769869546140856e-04  2.7769930612688378e-04  2.7770036520226760e-04  2.7770216727613062e-04  2.7770517911495599e-04  2.7771013985906831e-04  2.7771824568590780e-04  2.7773152751609046e-04  2.7775366192148528e-04  2.7779168910010087e-04  2.7785944340599517e-04  2.7798379287359250e-04  2.7821461530928181e-04  2.7863802081231579e-04  2.7938870034250219e-04  2.8065069351816604e-04  2.8262800926663660e-04  2.8546540583576185e-04  2.8915010637399323e-04  2.9345638455912650e-04  2.9792542755255965e-04  3.0193942294077342e-04  3.0494006530777890e-04  3.0663396439763559e-04  3.0698542191167413e-04  3.0602380406102191e-04  3.0385728409823088e-04  3.0081607588511680e-04  2.9735534338837005e-04  2.9390026177776953e-04  2.9073965062608392e-04  2.8802003497685664e-04  2.8577561608546253e-04  2.8397435592509646e-04  2.8255553064666846e-04  2.8145087364169998e-04  2.8059602747230008e-04  2.7993620722462017e-04  2.7942728423866549e-04  2.7903464582686638e-04  2.7873154134563525e-04  2.7849742546656693e-04  2.7831650771338508e-04  2.7817664022955100e-04  2.7806847624508961e-04  2.7798481253798758e-04  2.7792008876877453e-04  2.7787000981715202e-04  2.7783125534193204e-04  2.7780125738794380e-04  2.7777803038723218e-04  2.7776003953503675e-04  2.7774609871505294e-04  2.7773529146031870e-04  2.7772690955125739e-04  2.7772040541965945e-04  2.7771535543228939e-04  2.7771143162245250e-04  2.7770837997247118e-04  2.7770600376141453e-04  2.7770415079250081e-04  2.7770270358070580e-04  2.7770157177979516e-04  2.7770068626275065e-04  2.7769999438483474e-04  2.7769945608706369e-04  2.7769904064458802e-04  2.7769872400186811e-04  2.7769848672239329e-04  2.7769831258470866e-04  2.7769818778140300e-04  2.7769810057175063e-04  2.7769804117652291e-04  2.7769800172282159e-04  2.7769797612463531e-04  2.7769795987081850e-04  2.7769794974923827e-04  2.7769794355489224e-04  2.7769793982220897e-04  2.7769793760387337e-04  2.7769793630197295e-04  2.7769793554671110e-04  2.7769793511332871e-04  2.7769793486730557e-04  2.7769793472927194e-04  2.7769793465309503e-04  2.7769793461253437e-04  2.7769793459336362e-04  5.5525154022382421e-04  5.5525154184190358e-04  2.7769793557405560e-04  2.7769793636919489e-04  2.7769793812140427e-04  2.7769794172452733e-04  2.7769794896527293e-04  2.7769796332883628e-04  2.7769799150348677e-04  2.7769804612801655e-04  2.7769815069389968e-04  2.7769834806827331e-04  2.7769871487897871e-04  2.7769938498250883e-04  2.7770058631451801e-04  2.7770269644808053e-04  2.7770632333399571e-04  2.7771242081683434e-04  2.7772246069608262e-04  2.7773872440835869e-04  2.7776489437918113e-04  2.7780740661714732e-04  2.7787860247147056e-04  2.7800368930170537e-04  2.7823472602669041e-04  2.7867543312743391e-04  2.7951866292682328e-04  2.8109131250650588e-04  2.8388510892269150e-04  2.8852299384289376e-04  2.9556032421644199e-04  3.0518983995165742e-04  3.1704956287193859e-04  3.2996316859245457e-04  3.4191925764857342e-04  3.5087196195017267e-04  3.5575648823942528e-04  3.5655995416501707e-04  3.5330981119700004e-04  3.4624706726039283e-04  3.3670861784024686e-04  3.2641504154667348e-04  3.1672244339339814e-04  3.0832568040866753e-04  3.0143908848507145e-04  2.9597574230666169e-04  2.9172456195403294e-04  2.8845528008865975e-04  2.8595547882767419e-04  2.8404569500264850e-04  2.8258472455769000e-04  2.8146489848132644e-04  2.8060470330933346e-04  2.7994271307889225e-04  2.7943258433460157e-04  2.7903906425445231e-04  2.7873523178128672e-04  2.7850050749972193e-04  2.7831909726721052e-04  2.7817884288163392e-04  2.7807037666146119e-04  2.7798646979110736e-04  2.7792153862605498e-04  2.7787127163242538e-04  2.7783233982251853e-04  2.7780217274056670e-04  2.7777878586012622e-04  2.7776064643908818e-04  2.7774656971209873e-04  2.7773563912594128e-04  2.7772714503726325e-04  2.7772053769897412e-04  2.7771539128984633e-04  2.7771137635196211e-04  2.7770823863981200e-04  2.7770578282615909e-04  2.7770385976476472e-04  2.7770235623862937e-04  2.7770118641472170e-04  2.7770028459370068e-04  2.7769959919927007e-04  2.7769908817043868e-04  2.7769871591149669e-04  2.7769845171919807e-04  2.7769826928406699e-04  2.7769814669049926e-04  2.7769806642061624e-04  2.7769801510452836e-04  2.7769798299519927e-04  2.7769796328121888e-04  2.7769795137723235e-04  2.7769794429370002e-04  2.7769794013328007e-04  2.7769793771853247e-04  2.7769793633236910e-04  2.7769793554499090e-04  2.7769793510239741e-04  2.7769793485644967e-04  2.7769793472196002e-04  2.7769793465093557e-04  2.7769793461755374e-04  5.5525154026113193e-04  5.5525154284819401e-04  2.7769793619937040e-04  2.7769793752094616e-04  2.7769794046330509e-04  2.7769794658618057e-04  2.7769795905232685e-04  2.7769798412772748e-04  2.7769803403750973e-04  2.7769813228816105e-04  2.7769832336862571e-04  2.7769868999241536e-04  2.7769938284844746e-04  2.7770067015955011e-04  2.7770301683224731e-04  2.7770720468532487e-04  2.7771450483401056e-04  2.7772691086297506e-04  2.7774744503853305e-04  2.7778059318891226e-04  2.7783310400048949e-04  2.7791592797594007e-04  2.7804937845197852e-04  2.7827620087192889e-04  2.7869130763403529e-04  2.7950114171519164e-04  2.8112612687966436e-04  2.8435377207280976e-04  2.9052864751630654e-04  3.0171360249961655e-04  3.2039373034367229e-04  3.4880260879464306e-04  3.8852518575803962e-04  4.3843426134692481e-04  4.9100110199450629e-04  5.3342562967512316e-04  5.5671647973604642e-04  5.6029905819999766e-04  5.4330028087293529e-04  5.0654237867371762e-04  4.6091376342557446e-04  4.1780588184631536e-04  3.8261055706856367e-04  3.5562998516514054e-04  3.3559803848383753e-04  3.2088210537838840e-04  3.1006975964498136e-04  3.0210642634948291e-04  2.9620886569949474e-04  2.9180381859137804e-04  2.8848768421675094e-04  2.8597557212678881e-04  2.8406233737905754e-04  2.8259927855826681e-04  2.8147741358347034e-04  2.8061526891992264e-04  2.7995151293084425e-04  2.7943987915438653e-04  2.7904515305493722e-04  2.7874038988879321e-04  2.7850494993862895e-04  2.7832296811628604e-04  2.7818222491176188e-04  2.7807331245541597e-04  2.7798898290292063e-04  2.7792364893561191e-04  2.7787300334417719e-04  2.7783372288368863e-04  2.7780324012151639e-04  2.7777956946345932e-04  2.7776117367540908e-04  2.7774686178032396e-04  2.7773571121440967e-04  2.7772700822479023e-04  2.7772020219958815e-04  2.7771487060259428e-04  2.7771069159232542e-04  2.7770742183925307e-04  2.7770487772879967e-04  2.7770291908295206e-04  2.7770143547697858e-04  2.7770033579720002e-04  2.7769954162452996e-04  2.7769898430575051e-04  2.7769860458546237e-04  2.7769835320243019e-04  2.7769819117312637e-04  2.7769808921329842e-04  2.7769802638598552e-04  2.7769798836667115e-04  2.7769796571589531e-04  2.7769795240370222e-04  2.7769794467442113e-04  2.7769794023646500e-04  2.7769793771502470e-04  2.7769793629704330e-04  2.7769793550778716e-04  2.7769793507343284e-04  2.7769793483813641e-04  2.7769793471492133e-04  2.7769793465734510e-04  5.5525154032226326e-04  5.5525154438472218e-04  2.7769793716349685e-04  2.7769793931989387e-04  2.7769794417064584e-04  2.7769795438599491e-04  2.7769797545970811e-04  2.7769801844972259e-04  2.7769810529999485e-04  2.7769827897281869e-04  2.7769862234618944e-04  2.7769929263123767e-04  2.7770058230670045e-04  2.7770302335211264e-04  2.7770755811073919e-04  2.7771580469949724e-04  2.7773044165294155e-04  2.7775571719522310e-04  2.7779805164915560e-04  2.7786668578865935e-04  2.7797450248126195e-04  2.7814000417889412e-04  2.78394077774