<?xml version="1.0"?>
<VTKFile type="UnstructuredGrid"  version="0.1"  >
<UnstructuredGrid>
<Piece  NumberOfPoints="5151" NumberOfCells="10000">
<Points>
<DataArray  type="Float64"  NumberOfComponents="3"  format="ascii">0 0 0  0.02 0 0  0.04 0 0  0.06 0 0  0.08 0 0  0.1 0 0  0.12 0 0  0.14 0 0  0.16 0 0  0.18 0 0  0.2 0 0  0.22 0 0  0.24 0 0  0.26 0 0  0.28 0 0  0.3 0 0  0.32 0 0  0.34 0 0  0.36 0 0  0.38 0 0  0.4 0 0  0.42 0 0  0.44 0 0  0.46 0 0  0.48 0 0  0.5 0 0  0.52 0 0  0.54 0 0  0.5600000000000001 0 0  0.58 0 0  0.6 0 0  0.62 0 0  0.64 0 0  0.66 0 0  0.68 0 0  0.7 0 0  0.72 0 0  0.74 0 0  0.76 0 0  0.78 0 0  0.8 0 0  0.82 0 0  0.84 0 0  0.86 0 0  0.88 0 0  0.9 0 0  0.92 0 0  0.9399999999999999 0 0  0.96 0 0  0.98 0 0  1 0 0  1.02 0 0  1.04 0 0  1.06 0 0  1.08 0 0  1.1 0 0  1.12 0 0  1.14 0 0  1.16 0 0  1.18 0 0  1.2 0 0  1.22 0 0  1.24 0 0  1.26 0 0  1.28 0 0  1.3 0 0  1.32 0 0  1.34 0 0  1.36 0 0  1.38 0 0  1.4 0 0  1.42 0 0  1.44 0 0  1.46 0 0  1.48 0 0  1.5 0 0  1.52 0 0  1.54 0 0  1.56 0 0  1.58 0 0  1.6 0 0  1.62 0 0  1.64 0 0  1.66 0 0  1.68 0 0  1.7 0 0  1.72 0 0  1.74 0 0  1.76 0 0  1.78 0 0  1.8 0 0  1.82 0 0  1.84 0 0  1.86 0 0  1.88 0 0  1.9 0 0  1.92 0 0  1.94 0 0  1.96 0 0  1.98 0 0  2 0 0  0 0.02 0  0.02 0.02 0  0.04 0.02 0  0.06 0.02 0  0.08 0.02 0  0.1 0.02 0  0.12 0.02 0  0.14 0.02 0  0.16 0.02 0  0.18 0.02 0  0.2 0.02 0  0.22 0.02 0  0.24 0.02 0  0.26 0.02 0  0.28 0.02 0  0.3 0.02 0  0.32 0.02 0  0.34 0.02 0  0.36 0.02 0  0.38 0.02 0  0.4 0.02 0  0.42 0.02 0  0.44 0.02 0  0.46 0.02 0  0.48 0.02 0  0.5 0.02 0  0.52 0.02 0  0.54 0.02 0  0.5600000000000001 0.02 0  0.58 0.02 0  0.6 0.02 0  0.62 0.02 0  0.64 0.02 0  0.66 0.02 0  0.68 0.02 0  0.7 0.02 0  0.72 0.02 0  0.74 0.02 0  0.76 0.02 0  0.78 0.02 0  0.8 0.02 0  0.82 0.02 0  0.84 0.02 0  0.86 0.02 0  0.88 0.02 0  0.9 0.02 0  0.92 0.02 0  0.9399999999999999 0.02 0  0.96 0.02 0  0.98 0.02 0  1 0.02 0  1.02 0.02 0  1.04 0.02 0  1.06 0.02 0  1.08 0.02 0  1.1 0.02 0  1.12 0.02 0  1.14 0.02 0  1.16 0.02 0  1.18 0.02 0  1.2 0.02 0  1.22 0.02 0  1.24 0.02 0  1.26 0.02 0  1.28 0.02 0  1.3 0.02 0  1.32 0.02 0  1.34 0.02 0  1.36 0.02 0  1.38 0.02 0  1.4 0.02 0  1.42 0.02 0  1.44 0.02 0  1.46 0.02 0  1.48 0.02 0  1.5 0.02 0  1.52 0.02 0  1.54 0.02 0  1.56 0.02 0  1.58 0.02 0  1.6 0.02 0  1.62 0.02 0  1.64 0.02 0  1.66 0.02 0  1.68 0.02 0  1.7 0.02 0  1.72 0.02 0  1.74 0.02 0  1.76 0.02 0  1.78 0.02 0  1.8 0.02 0  1.82 0.02 0  1.84 0.02 0  1.86 0.02 0  1.88 0.02 0  1.9 0.02 0  1.92 0.02 0  1.94 0.02 0  1.96 0.02 0  1.98 0.02 0  2 0.02 0  0 0.04 0  0.02 0.04 0  0.04 0.04 0  0.06 0.04 0  0.08 0.04 0  0.1 0.04 0  0.12 0.04 0  0.14 0.04 0  0.16 0.04 0  0.18 0.04 0  0.2 0.04 0  0.22 0.04 0  0.24 0.04 0  0.26 0.04 0  0.28 0.04 0  0.3 0.04 0  0.32 0.04 0  0.34 0.04 0  0.36 0.04 0  0.38 0.04 0  0.4 0.04 0  0.42 0.04 0  0.44 0.04 0  0.46 0.04 0  0.48 0.04 0  0.5 0.04 0  0.52 0.04 0  0.54 0.04 0  0.5600000000000001 0.04 0  0.58 0.04 0  0.6 0.04 0  0.62 0.04 0  0.64 0.04 0  0.66 0.04 0  0.68 0.04 0  0.7 0.04 0  0.72 0.04 0  0.74 0.04 0  0.76 0.04 0  0.78 0.04 0  0.8 0.04 0  0.82 0.04 0  0.84 0.04 0  0.86 0.04 0  0.88 0.04 0  0.9 0.04 0  0.92 0.04 0  0.9399999999999999 0.04 0  0.96 0.04 0  0.98 0.04 0  1 0.04 0  1.02 0.04 0  1.04 0.04 0  1.06 0.04 0  1.08 0.04 0  1.1 0.04 0  1.12 0.04 0  1.14 0.04 0  1.16 0.04 0  1.18 0.04 0  1.2 0.04 0  1.22 0.04 0  1.24 0.04 0  1.26 0.04 0  1.28 0.04 0  1.3 0.04 0  1.32 0.04 0  1.34 0.04 0  1.36 0.04 0  1.38 0.04 0  1.4 0.04 0  1.42 0.04 0  1.44 0.04 0  1.46 0.04 0  1.48 0.04 0  1.5 0.04 0  1.52 0.04 0  1.54 0.04 0  1.56 0.04 0  1.58 0.04 0  1.6 0.04 0  1.62 0.04 0  1.64 0.04 0  1.66 0.04 0  1.68 0.04 0  1.7 0.04 0  1.72 0.04 0  1.74 0.04 0  1.76 0.04 0  1.78 0.04 0  1.8 0.04 0  1.82 0.04 0  1.84 0.04 0  1.86 0.04 0  1.88 0.04 0  1.9 0.04 0  1.92 0.04 0  1.94 0.04 0  1.96 0.04 0  1.98 0.04 0  2 0.04 0  0 0.06 0  0.02 0.06 0  0.04 0.06 0  0.06 0.06 0  0.08 0.06 0  0.1 0.06 0  0.12 0.06 0  0.14 0.06 0  0.16 0.06 0  0.18 0.06 0  0.2 0.06 0  0.22 0.06 0  0.24 0.06 0  0.26 0.06 0  0.28 0.06 0  0.3 0.06 0  0.32 0.06 0  0.34 0.06 0  0.36 0.06 0  0.38 0.06 0  0.4 0.06 0  0.42 0.06 0  0.44 0.06 0  0.46 0.06 0  0.48 0.06 0  0.5 0.06 0  0.52 0.06 0  0.54 0.06 0  0.5600000000000001 0.06 0  0.58 0.06 0  0.6 0.06 0  0.62 0.06 0  0.64 0.06 0  0.66 0.06 0  0.68 0.06 0  0.7 0.06 0  0.72 0.06 0  0.74 0.06 0  0.76 0.06 0  0.78 0.06 0  0.8 0.06 0  0.82 0.06 0  0.84 0.06 0  0.86 0.06 0  0.88 0.06 0  0.9 0.06 0  0.92 0.06 0  0.9399999999999999 0.06 0  0.96 0.06 0  0.98 0.06 0  1 0.06 0  1.02 0.06 0  1.04 0.06 0  1.06 0.06 0  1.08 0.06 0  1.1 0.06 0  1.12 0.06 0  1.14 0.06 0  1.16 0.06 0  1.18 0.06 0  1.2 0.06 0  1.22 0.06 0  1.24 0.06 0  1.26 0.06 0  1.28 0.06 0  1.3 0.06 0  1.32 0.06 0  1.34 0.06 0  1.36 0.06 0  1.38 0.06 0  1.4 0.06 0  1.42 0.06 0  1.44 0.06 0  1.46 0.06 0  1.48 0.06 0  1.5 0.06 0  1.52 0.06 0  1.54 0.06 0  1.56 0.06 0  1.58 0.06 0  1.6 0.06 0  1.62 0.06 0  1.64 0.06 0  1.66 0.06 0  1.68 0.06 0  1.7 0.06 0  1.72 0.06 0  1.74 0.06 0  1.76 0.06 0  1.78 0.06 0  1.8 0.06 0  1.82 0.06 0  1.84 0.06 0  1.86 0.06 0  1.88 0.06 0  1.9 0.06 0  1.92 0.06 0  1.94 0.06 0  1.96 0.06 0  1.98 0.06 0  2 0.06 0  0 0.08 0  0.02 0.08 0  0.04 0.08 0  0.06 0.08 0  0.08 0.08 0  0.1 0.08 0  0.12 0.08 0  0.14 0.08 0  0.16 0.08 0  0.18 0.08 0  0.2 0.08 0  0.22 0.08 0  0.24 0.08 0  0.26 0.08 0  0.28 0.08 0  0.3 0.08 0  0.32 0.08 0  0.34 0.08 0  0.36 0.08 0  0.38 0.08 0  0.4 0.08 0  0.42 0.08 0  0.44 0.08 0  0.46 0.08 0  0.48 0.08 0  0.5 0.08 0  0.52 0.08 0  0.54 0.08 0  0.5600000000000001 0.08 0  0.58 0.08 0  0.6 0.08 0  0.62 0.08 0  0.64 0.08 0  0.66 0.08 0  0.68 0.08 0  0.7 0.08 0  0.72 0.08 0  0.74 0.08 0  0.76 0.08 0  0.78 0.08 0  0.8 0.08 0  0.82 0.08 0  0.84 0.08 0  0.86 0.08 0  0.88 0.08 0  0.9 0.08 0  0.92 0.08 0  0.9399999999999999 0.08 0  0.96 0.08 0  0.98 0.08 0  1 0.08 0  1.02 0.08 0  1.04 0.08 0  1.06 0.08 0  1.08 0.08 0  1.1 0.08 0  1.12 0.08 0  1.14 0.08 0  1.16 0.08 0  1.18 0.08 0  1.2 0.08 0  1.22 0.08 0  1.24 0.08 0  1.26 0.08 0  1.28 0.08 0  1.3 0.08 0  1.32 0.08 0  1.34 0.08 0  1.36 0.08 0  1.38 0.08 0  1.4 0.08 0  1.42 0.08 0  1.44 0.08 0  1.46 0.08 0  1.48 0.08 0  1.5 0.08 0  1.52 0.08 0  1.54 0.08 0  1.56 0.08 0  1.58 0.08 0  1.6 0.08 0  1.62 0.08 0  1.64 0.08 0  1.66 0.08 0  1.68 0.08 0  1.7 0.08 0  1.72 0.08 0  1.74 0.08 0  1.76 0.08 0  1.78 0.08 0  1.8 0.08 0  1.82 0.08 0  1.84 0.08 0  1.86 0.08 0  1.88 0.08 0  1.9 0.08 0  1.92 0.08 0  1.94 0.08 0  1.96 0.08 0  1.98 0.08 0  2 0.08 0  0 0.1 0  0.02 0.1 0  0.04 0.1 0  0.06 0.1 0  0.08 0.1 0  0.1 0.1 0  0.12 0.1 0  0.14 0.1 0  0.16 0.1 0  0.18 0.1 0  0.2 0.1 0  0.22 0.1 0  0.24 0.1 0  0.26 0.1 0  0.28 0.1 0  0.3 0.1 0  0.32 0.1 0  0.34 0.1 0  0.36 0.1 0  0.38 0.1 0  0.4 0.1 0  0.42 0.1 0  0.44 0.1 0  0.46 0.1 0  0.48 0.1 0  0.5 0.1 0  0.52 0.1 0  0.54 0.1 0  0.5600000000000001 0.1 0  0.58 0.1 0  0.6 0.1 0  0.62 0.1 0  0.64 0.1 0  0.66 0.1 0  0.68 0.1 0  0.7 0.1 0  0.72 0.1 0  0.74 0.1 0  0.76 0.1 0  0.78 0.1 0  0.8 0.1 0  0.82 0.1 0  0.84 0.1 0  0.86 0.1 0  0.88 0.1 0  0.9 0.1 0  0.92 0.1 0  0.9399999999999999 0.1 0  0.96 0.1 0  0.98 0.1 0  1 0.1 0  1.02 0.1 0  1.04 0.1 0  1.06 0.1 0  1.08 0.1 0  1.1 0.1 0  1.12 0.1 0  1.14 0.1 0  1.16 0.1 0  1.18 0.1 0  1.2 0.1 0  1.22 0.1 0  1.24 0.1 0  1.26 0.1 0  1.28 0.1 0  1.3 0.1 0  1.32 0.1 0  1.34 0.1 0  1.36 0.1 0  1.38 0.1 0  1.4 0.1 0  1.42 0.1 0  1.44 0.1 0  1.46 0.1 0  1.48 0.1 0  1.5 0.1 0  1.52 0.1 0  1.54 0.1 0  1.56 0.1 0  1.58 0.1 0  1.6 0.1 0  1.62 0.1 0  1.64 0.1 0  1.66 0.1 0  1.68 0.1 0  1.7 0.1 0  1.72 0.1 0  1.74 0.1 0  1.76 0.1 0  1.78 0.1 0  1.8 0.1 0  1.82 0.1 0  1.84 0.1 0  1.86 0.1 0  1.88 0.1 0  1.9 0.1 0  1.92 0.1 0  1.94 0.1 0  1.96 0.1 0  1.98 0.1 0  2 0.1 0  0 0.12 0  0.02 0.12 0  0.04 0.12 0  0.06 0.12 0  0.08 0.12 0  0.1 0.12 0  0.12 0.12 0  0.14 0.12 0  0.16 0.12 0  0.18 0.12 0  0.2 0.12 0  0.22 0.12 0  0.24 0.12 0  0.26 0.12 0  0.28 0.12 0  0.3 0.12 0  0.32 0.12 0  0.34 0.12 0  0.36 0.12 0  0.38 0.12 0  0.4 0.12 0  0.42 0.12 0  0.44 0.12 0  0.46 0.12 0  0.48 0.12 0  0.5 0.12 0  0.52 0.12 0  0.54 0.12 0  0.5600000000000001 0.12 0  0.58 0.12 0  0.6 0.12 0  0.62 0.12 0  0.64 0.12 0  0.66 0.12 0  0.68 0.12 0  0.7 0.12 0  0.72 0.12 0  0.74 0.12 0  0.76 0.12 0  0.78 0.12 0  0.8 0.12 0  0.82 0.12 0  0.84 0.12 0  0.86 0.12 0  0.88 0.12 0  0.9 0.12 0  0.92 0.12 0  0.9399999999999999 0.12 0  0.96 0.12 0  0.98 0.12 0  1 0.12 0  1.02 0.12 0  1.04 0.12 0  1.06 0.12 0  1.08 0.12 0  1.1 0.12 0  1.12 0.12 0  1.14 0.12 0  1.16 0.12 0  1.18 0.12 0  1.2 0.12 0  1.22 0.12 0  1.24 0.12 0  1.26 0.12 0  1.28 0.12 0  1.3 0.12 0  1.32 0.12 0  1.34 0.12 0  1.36 0.12 0  1.38 0.12 0  1.4 0.12 0  1.42 0.12 0  1.44 0.12 0  1.46 0.12 0  1.48 0.12 0  1.5 0.12 0  1.52 0.12 0  1.54 0.12 0  1.56 0.12 0  1.58 0.12 0  1.6 0.12 0  1.62 0.12 0  1.64 0.12 0  1.66 0.12 0  1.68 0.12 0  1.7 0.12 0  1.72 0.12 0  1.74 0.12 0  1.76 0.12 0  1.78 0.12 0  1.8 0.12 0  1.82 0.12 0  1.84 0.12 0  1.86 0.12 0  1.88 0.12 0  1.9 0.12 0  1.92 0.12 0  1.94 0.12 0  1.96 0.12 0  1.98 0.12 0  2 0.12 0  0 0.14 0  0.02 0.14 0  0.04 0.14 0  0.06 0.14 0  0.08 0.14 0  0.1 0.14 0  0.12 0.14 0  0.14 0.14 0  0.16 0.14 0  0.18 0.14 0  0.2 0.14 0  0.22 0.14 0  0.24 0.14 0  0.26 0.14 0  0.28 0.14 0  0.3 0.14 0  0.32 0.14 0  0.34 0.14 0  0.36 0.14 0  0.38 0.14 0  0.4 0.14 0  0.42 0.14 0  0.44 0.14 0  0.46 0.14 0  0.48 0.14 0  0.5 0.14 0  0.52 0.14 0  0.54 0.14 0  0.5600000000000001 0.14 0  0.58 0.14 0  0.6 0.14 0  0.62 0.14 0  0.64 0.14 0  0.66 0.14 0  0.68 0.14 0  0.7 0.14 0  0.72 0.14 0  0.74 0.14 0  0.76 0.14 0  0.78 0.14 0  0.8 0.14 0  0.82 0.14 0  0.84 0.14 0  0.86 0.14 0  0.88 0.14 0  0.9 0.14 0  0.92 0.14 0  0.9399999999999999 0.14 0  0.96 0.14 0  0.98 0.14 0  1 0.14 0  1.02 0.14 0  1.04 0.14 0  1.06 0.14 0  1.08 0.14 0  1.1 0.14 0  1.12 0.14 0  1.14 0.14 0  1.16 0.14 0  1.18 0.14 0  1.2 0.14 0  1.22 0.14 0  1.24 0.14 0  1.26 0.14 0  1.28 0.14 0  1.3 0.14 0  1.32 0.14 0  1.34 0.14 0  1.36 0.14 0  1.38 0.14 0  1.4 0.14 0  1.42 0.14 0  1.44 0.14 0  1.46 0.14 0  1.48 0.14 0  1
[...]
<PointData  Scalars="sols[i]"> 
<DataArray  type="Float64"  Name="sols[i]"  format="ascii">2.1210268654228591e-03  1.4097632002872348e-03  1.4097632002871099e-03  1.4097632002868852e-03  1.4097632002865066e-03  1.4097632002858670e-03  1.4097632002847671e-03  1.4097632002828637e-03  1.4097632002795985e-03  1.4097632002741407e-03  1.4097632002653187e-03  1.4097632002515268e-03  1.4097632002306650e-03  1.4097632002000593e-03  1.4097632001563889e-03  1.4097632000956263e-03  1.4097632000130244e-03  1.4097631999030937e-03  1.4097631997596178e-03  1.4097631995757375e-03  1.4097631993440262e-03  1.4097631990565994e-03  1.4097631987052806e-03  1.4097631982817375e-03  1.4097631977776138e-03  1.4097631971846788e-03  1.4097631964949072e-03  1.4097631957005223e-03  1.4097631947940083e-03  1.4097631937680312e-03  1.4097631926153773e-03  1.4097631913287940e-03  1.4097631899008464e-03  1.4097631883237803e-03  1.4097631865894128e-03  1.4097631846890554e-03  1.4097631826135741e-03  1.4097631803534896e-03  1.4097631778992219e-03  1.4097631752414764e-03  1.4097631723717545e-03  1.4097631692829905e-03  1.4097631659703799e-03  1.4097631624322756e-03  1.4097631586712173e-03  1.4097631546950628e-03  1.4097631505181740e-03  1.4097631461626107e-03  1.4097631416593432e-03  1.4097631370493299e-03  1.4097631323844221e-03  1.4097631277279615e-03  1.4097631231548523e-03  1.4097631187508903e-03  1.4097631146110430e-03  1.4097631108364135e-03  1.4097631075297452e-03  1.4097631047894680e-03  1.4097631027030020e-03  1.4097631013399703e-03  1.4097631007467934e-03  1.4097631009438835e-03  1.4097631019261681e-03  1.4097631036668118e-03  1.4097631061229404e-03  1.4097631092414675e-03  1.4097631129631801e-03  1.4097631172241194e-03  1.4097631219545746e-03  1.4097631270770122e-03  1.4097631325047607e-03  1.4097631381424164e-03  1.4097631438884624e-03  1.4097631496396154e-03  1.4097631552959285e-03  1.4097631607657098e-03  1.4097631659695021e-03  1.4097631708427164e-03  1.4097631753368840e-03  1.4097631794196389e-03  1.4097631830737633e-03  1.4097631862955945e-03  1.4097631890930187e-03  1.4097631914834793e-03  1.4097631934918871e-03  1.4097631951487375e-03  1.4097631964884267e-03  1.4097631975477512e-03  1.4097631983645961e-03  1.4097631989767640e-03  1.4097631994209217e-03  1.4097631997316137e-03  1.4097631999403512e-03  1.4097632000747802e-03  1.4097632001579263e-03  1.4097632002078183e-03  1.4097632002373667e-03  1.4097632002548475e-03  1.4097632002649722e-03  1.4097632002701556e-03  4.2789591029040765e-03  1.4097632002872474e-03  7.0272135659141949e-04  7.0272135659136593e-04  7.0272135659125447e-04  7.0272135659104891e-04  7.0272135659068613e-04  7.0272135659005860e-04  7.0272135658899630e-04  7.0272135658723664e-04  7.0272135658439624e-04  7.0272135657994061e-04  7.0272135657315177e-04  7.0272135656309167e-04  7.0272135654857399e-04  7.0272135652813352e-04  7.0272135649999783e-04  7.0272135646208024e-04  7.0272135641197687e-04  7.0272135634696811e-04  7.0272135626405310e-04  7.0272135615998595e-04  7.0272135603132000e-04  7.0272135587447519e-04  7.0272135568580341e-04  7.0272135546163724e-04  7.0272135519835804e-04  7.0272135489243088e-04  7.0272135454042578e-04  7.0272135413902139e-04  7.0272135368497943e-04  7.0272135317511449e-04  7.0272135260623860e-04  7.0272135197509589e-04  7.0272135127830691e-04  7.0272135051232501e-04  7.0272134967340276e-04  7.0272134875761275e-04  7.0272134776089876e-04  7.0272134667916705e-04  7.0272134550844879e-04  7.0272134424512016e-04  7.0272134288616489e-04  7.0272134142952084e-04  7.0272133987446593e-04  7.0272133822204511e-04  7.0272133647556107e-04  7.0272133464108471e-04  7.0272133272798873e-04  7.0272133074950342e-04  7.0272132872325230e-04  7.0272132667173058e-04  7.0272132462269581e-04  7.0272132260934344e-04  7.0272132067014117e-04  7.0272131884813096e-04  7.0272131718950265e-04  7.0272131574128502e-04  7.0272131454814373e-04  7.0272131364861263e-04  7.0272131307130728e-04  7.0272131283199393e-04  7.0272131293246890e-04  7.0272131336176287e-04  7.0272131409956180e-04  7.0272131512091147e-04  7.0272131640068528e-04  7.0272131791631774e-04  7.0272131964801239e-04  7.0272132157671481e-04  7.0272132368097949e-04  7.0272132593422179e-04  7.0272132830335250e-04  7.0272133074917643e-04  7.0272133322833480e-04  7.0272133569610428e-04  7.0272133810935075e-04  7.0272134042910104e-04  7.0272134262239433e-04  7.0272134466333445e-04  7.0272134653341753e-04  7.0272134822128504e-04  7.0272134972209016e-04  7.0272135103662675e-04  7.0272135217039648e-04  7.0272135313266082e-04  7.0272135393553161e-04  7.0272135459317959e-04  7.0272135512112100e-04  7.0272135553558677e-04  7.0272135585297373e-04  7.0272135608934476e-04  7.0272135625998431e-04  7.0272135637899696e-04  7.0272135645895730e-04  7.0272135651061130e-04  7.0272135654270737e-04  7.0272135656194437e-04  7.0272135657305527e-04  7.0272135657910751e-04  7.0272135658199365e-04  1.4097632002706799e-03  1.4097632002871606e-03  7.0272135659138284e-04  7.0272135659132278e-04  7.0272135659117749e-04  7.0272135659089061e-04  7.0272135659037714e-04  7.0272135658950370e-04  7.0272135658808275e-04  7.0272135658584972e-04  7.0272135658244186e-04  7.0272135657738059e-04  7.0272135657004531e-04  7.0272135655965020e-04  7.0272135654522489e-04  7.0272135652560061e-04  7.0272135649939111e-04  7.0272135646499241e-04  7.0272135642058847e-04  7.0272135636415445e-04  7.0272135629348528e-04  7.0272135620622544e-04  7.0272135609989361e-04  7.0272135597193434e-04  7.0272135581975312e-04  7.0272135564074354e-04  7.0272135543232670e-04  7.0272135519196645e-04  7.0272135491717303e-04  7.0272135460550263e-04  7.0272135425453273e-04  7.0272135386184446e-04  7.0272135342499013e-04  7.0272135294144962e-04  7.0272135240860892e-04  7.0272135182373996e-04  7.0272135118398999e-04  7.0272135048641453e-04  7.0272134972802660e-04  7.0272134890587393e-04  7.0272134801716772e-04  7.0272134705944532e-04  7.0272134603076622e-04  7.0272134492995993e-04  7.0272134375690652e-04  7.0272134251284112e-04  7.0272134120071819e-04  7.0272133982560939e-04  7.0272133839515143e-04  7.0272133692007421e-04  7.0272133541479371e-04  7.0272133389805320e-04  7.0272133239359172e-04  7.0272133093068055e-04  7.0272132954429735e-04  7.0272132827456954e-04  7.0272132716503628e-04  7.0272132625933174e-04  7.0272132559616386e-04  7.0272132520312692e-04  7.0272132509055616e-04  7.0272132524737516e-04  7.0272132564103596e-04  7.0272132622275639e-04  7.0272132693762271e-04  7.0272132773704292e-04  7.0272132858958817e-04  7.0272132948638361e-04  7.0272133043925572e-04  7.0272133147273805e-04  7.0272133261324999e-04  7.0272133387932383e-04  7.0272133527546224e-04  7.0272133679045979e-04  7.0272133839952098e-04  7.0272134006858257e-04  7.0272134175931389e-04  7.0272134343360264e-04  7.0272134505691372e-04  7.0272134660036094e-04  7.0272134804163101e-04  7.0272134936505480e-04  7.0272135056112192e-04  7.0272135162568160e-04  7.0272135255906474e-04  7.0272135336519985e-04  7.0272135405077471e-04  7.0272135462453342e-04  7.0272135509663798e-04  7.0272135547812058e-04  7.0272135578040374e-04  7.0272135601487287e-04  7.0272135619251072e-04  7.0272135632359553e-04  7.0272135641747291e-04  7.0272135648239429e-04  7.0272135652546595e-04  7.0272135655263454e-04  7.0272135656865753e-04  7.0272135657709046e-04  7.0272135658051350e-04  1.4097632002678883e-03  1.4097632002870206e-03  7.0272135659131107e-04  7.0272135659121978e-04  7.0272135659099340e-04  7.0272135659056058e-04  7.0272135658981118e-04  7.0272135658858820e-04  7.0272135658668304e-04  7.0272135658382118e-04  7.0272135657964961e-04  7.0272135657372531e-04  7.0272135656550033e-04  7.0272135655430681e-04  7.0272135653935306e-04  7.0272135651971491e-04  7.0272135649433157e-04  7.0272135646201649e-04  7.0272135642146711e-04  7.0272135637127419e-04  7.0272135630994803e-04  7.0272135623594169e-04  7.0272135614766681e-04  7.0272135604351922e-04  7.0272135592189776e-04  7.0272135578120128e-04  7.0272135561984229e-04  7.0272135543623698e-04  7.0272135522878878e-04  7.0272135499588394e-04  7.0272135473585995e-04  7.0272135444700312e-04  7.0272135412753666e-04  7.0272135377560311e-04  7.0272135338927261e-04  7.0272135296655281e-04  7.0272135250540129e-04  7.0272135200377195e-04  7.0272135145966899e-04  7.0272135087120504e-04  7.0272135023670434e-04  7.0272134955481663e-04  7.0272134882463878e-04  7.0272134804588325e-04  7.0272134721905332e-04  7.0272134634564152e-04  7.0272134542839521e-04  7.0272134447165661e-04  7.0272134348182470e-04  7.0272134246803040e-04  7.0272134144306058e-04  7.0272134042457840e-04  7.0272133943662563e-04  7.0272133851115889e-04  7.0272133768914087e-04  7.0272133702032561e-04  7.0272133656057640e-04  7.0272133636557614e-04  7.0272133648036517e-04  7.0272133692569536e-04  7.0272133768417566e-04  7.0272133869117332e-04  7.0272133983601839e-04  7.0272134097695057e-04  7.0272134196875183e-04  7.0272134269626341e-04  7.0272134310280583e-04  7.0272134320292800e-04  7.0272134307482127e-04  7.0272134283617862e-04  7.0272134261329506e-04  7.0272134251392381e-04  7.0272134261051213e-04  7.0272134293529465e-04  7.0272134348481363e-04  7.0272134422965076e-04  7.0272134512546413e-04  7.0272134612264499e-04  7.0272134717334900e-04  7.0272134823573377e-04  7.0272134927587570e-04  7.0272135026806359e-04  7.0272135119413704e-04  7.0272135204237107e-04  7.0272135280629233e-04  7.0272135348357066e-04  7.0272135407505217e-04  7.0272135458399510e-04  7.0272135501542646e-04  7.0272135537559756e-04  7.0272135567151363e-04  7.0272135591051927e-04  7.0272135609995368e-04  7.0272135624688519e-04  7.0272135635794739e-04  7.0272135643926494e-04  7.0272135649648241e-04  7.0272135653478012e-04  7.0272135655875573e-04  7.0272135657215430e-04  7.0272135657780234e-04  1.4097632002635150e-03  1.4097632002868154e-03  7.0272135659119116e-04  7.0272135659103481e-04  7.0272135659067789e-04  7.0272135659003344e-04  7.0272135658897223e-04  7.0272135658731318e-04  7.0272135658482385e-04  7.0272135658121151e-04  7.0272135657611836e-04  7.0272135656911463e-04  7.0272135655968944e-04  7.0272135654724779e-04  7.0272135653111465e-04  7.0272135651053844e-04  7.0272135648469605e-04  7.0272135645271577e-04  7.0272135641369577e-04  7.0272135636672054e-04  7.0272135631089128e-04  7.0272135624534627e-04  7.0272135616926672e-04  7.0272135608189022e-04  7.0272135598249924e-04  7.0272135587039772e-04  7.0272135574488441e-04  7.0272135560521922e-04  7.0272135545057903e-04  7.0272135528003988e-04  7.0272135509254902e-04  7.0272135488693571e-04  7.0272135466192365e-04  7.0272135441615236e-04  7.0272135414822497e-04  7.0272135385675391e-04  7.0272135354040432e-04  7.0272135319796015e-04  7.0272135282837883e-04  7.0272135243084049e-04  7.0272135200482059e-04  7.0272135155015065e-04  7.0272135106707982e-04  7.0272135055634926e-04  7.0272135001926781e-04  7.0272134945781567e-04  7.0272134887484254e-04  7.0272134827443849e-04  7.0272134766259241e-04  7.0272134704836044e-04  7.0272134644571186e-04  7.0272134587625918e-04  7.0272134537290661e-04  7.0272134498403083e-04  7.0272134477712819e-04  7.0272134483985709e-04  7.0272134527546112e-04  7.0272134618924839e-04  7.0272134766409641e-04  7.0272134972667742e-04  7.0272135231177471e-04  7.0272135523781454e-04  7.0272135820888780e-04  7.0272136085345748e-04  7.0272136279765141e-04  7.0272136375485795e-04  7.0272136360102397e-04  7.0272136240591139e-04  7.0272136040805118e-04  7.0272135794597723e-04  7.0272135537457927e-04  7.0272135299522952e-04  7.0272135101584064e-04  7.0272134954229670e-04  7.0272134859284980e-04  7.0272134812377623e-04  7.0272134805639958e-04  7.0272134829942132e-04  7.0272134876423419e-04  7.0272134937348512e-04  7.0272135006443372e-04  7.0272135078894488e-04  7.0272135151172956e-04  7.0272135220793546e-04  7.0272135286083290e-04  7.0272135345986002e-04  7.0272135399910077e-04  7.0272135447619157e-04  7.0272135489148069e-04  7.0272135524735032e-04  7.0272135554762401e-04  7.0272135579702434e-04  7.0272135600070668e-04  7.0272135616389624e-04  7.0272135629168161e-04  7.0272135638893172e-04  7.0272135646036677e-04  7.0272135651060458e-04  7.0272135654402771e-04  7.0272135656433829e-04  7.0272135657411194e-04  1.4097632002587034e-03  1.4097632002865270e-03  7.0272135659100836e-04  7.0272135659074490e-04  7.0272135659020562e-04  7.0272135658929077e-04  7.0272135658785203e-04  7.0272135658568449e-04  7.0272135658253120e-04  7.0272135657807795e-04  7.0272135657195047e-04  7.0272135656371682e-04  7.0272135655288304e-04  7.0272135653889835e-04  7.0272135652117013e-04  7.0272135649908016e-04  7.0272135647200069e-04  7.0272135643933455e-04  7.0272135640054895e-04  7.0272135635520371e-04  7.0272135630299374e-04  7.0272135624377288e-04  7.0272135617755393e-04  7.0272135610450386e-04  7.0272135602490174e-04  7.0272135593906827e-04  7.0272135584728947e-04  7.0272135574973187e-04  7.0272135564636079e-04  7.0272135553689735e-04  7.0272135542080076e-04  7.0272135529730558e-04  7.0272135516549305e-04  7.0272135502438002e-04  7.0272135487303711e-04  7.0272135471070580e-04  7.0272135453689345e-04  7.0272135435146886e-04  7.0272135415472173e-04  7.0272135394739777e-04  7.0272135373071910e-04  7.0272135350638487e-04  7.0272135327652772e-04  7.0272135304366191e-04  7.0272135281060984e-04  7.0272135258045930e-04  7.0272135235669646e-04  7.0272135214369713e-04  7.0272135194788068e-04  7.0272135178002645e-04  7.0272135165927430e-04  7.0272135161942900e-04  7.0272135171788692e-04  7.0272135204662461e-04  7.0272135274297687e-04  7.0272135399528438e-04  7.0272135603557614e-04  7.0272135910987130e-04  7.0272136341912629e-04  7.0272136903310606e-04  7.0272137579509525e-04  7.0272138325244661e-04  7.0272139065548551e-04  7.0272139705510723e-04  7.0272140149594945e-04  7.0272140325629761e-04  7.0272140204891273e-04  7.0272139809794232e-04  7.0272139205957329e-04  7.0272138482794849e-04  7.0272137731164841e-04  7.0272137025848675e-04  7.0272136416616479e-04  7.0272135927504299e-04  7.0272135561544303e-04  7.0272135307727500e-04  7.0272135147749762e-04  7.0272135061223251e-04  7.0272135028997618e-04  7.0272135034826354e-04  7.0272135065850496e-04  7.0272135112383607e-04  7.0272135167379003e-04  7.0272135225828169e-04  7.0272135284231408e-04  7.0272135340189619e-04  7.0272135392115899e-04  7.0272135439045634e-04  7.0272135480503226e-04  7.0272135516396628e-04  7.0272135546920627e-04  7.0272135572461481e-04  7.0272135593508057e-04  7.0272135610579796e-04  7.0272135624179595e-04  7.0272135634774375e-04  7.0272135642801309e-04  7.0272135648682217e-04  7.0272135652820747e-04  7.0272135655558726e-04  7.0272135657081618e-04  1.4097632002561121e-03  1.4097632002861120e-03  7.0272135659074186e-04  7.0272135659032943e-04  7.0272135658956073e-04  7.0272135658832669e-04  7.0272135658645948e-04  7.0272135658373293e-04  7.0272135657986710e-04  7.0272135657452545e-04  7.0272135656731919e-04  7.0272135655781031e-04  7.0272135654551957e-04  7.0272135652993937e-04  7.0272135651056446e-04  7.0272135648692105e-04  7.0272135645860928e-04  7.0272135642536677e-04  7.0272135638713065e-04  7.0272135634409497e-04  7.0272135629678191e-04  7.0272135624607854e-04  7.0272135619323865e-04  7.0272135613984473e-04  7.0272135608771369e-04  7.0272135603873312e-04  7.0272135599468524e-04  7.0272135595705323e-04  7.0272135592685993e-04  7.0272135590458630e-04  7.0272135589017400e-04  7.0272135588314295e-04  7.0272135588279015e-04  7.0272135588843473e-04  7.0272135589970154e-04  7.0272135591678379e-04  7.0272135594064426e-04  7.0272135597316534e-04  7.0272135601722016e-04  7.0272135607665287e-04  7.0272135615622117e-04  7.0272135626145448e-04  7.0272135639842847e-04  7.0272135657345643e-04  7.0272135679269859e-04  7.0272135706179843e-04  7.0272135738582158e-04  7.0272135776993597e-04  7.0272135822154955e-04  7.0272135875502147e-04  7.0272135940038782e-04  7.0272136021782270e-04  7.0272136131920384e-04  7.0272136289634113e-04  7.0272136525133364e-04  7.0272136881764495e-04  7.0272137415183637e-04  7.0272138186965407e-04  7.0272139250379998e-04  7.0272140628307761e-04  7.0272142287573932e-04  7.0272144119017978e-04  7.0272145935212503e-04  7.0272147494818116e-04  7.0272148553534512e-04  7.0272148928705478e-04  7.0272148553348506e-04  7.0272147495023247e-04  7.0272145930943479e-04  7.0272144093084881e-04  7.0272142208663139e-04  7.0272140456908517e-04  7.0272138950256227e-04  7.0272137736707759e-04  7.0272136814711339e-04  7.0272136151893361e-04  7.0272135701760527e-04  7.0272135415703129e-04  7.0272135250018172e-04  7.0272135168938498e-04  7.0272135145029260e-04  7.0272135158176100e-04  7.0272135194051157e-04  7.0272135242591864e-04  7.0272135296760687e-04  7.0272135351654276e-04  7.0272135403923143e-04  7.0272135451419546e-04  7.0272135492966694e-04  7.0272135528173167e-04  7.0272135557245680e-04  7.0272135580788024e-04  7.0272135599602206e-04  7.0272135614519332e-04  7.0272135626285007e-04  7.0272135635506298e-04  7.0272135642659040e-04  7.0272135648126281e-04  7.0272135652234714e-04  7.0272135655244871e-04  7.0272135657216211e-04  1.4097632002623120e-03  1.4097632002855161e-03  7.0272135659037063e-04  7.0272135658977887e-04  7.0272135658875040e-04  7.0272135658716703e-04  7.0272135658484619e-04  7.0272135658154457e-04  7.0272135657696621e-04  7.0272135657076283e-04  7.0272135656254068e-04  7.0272135655187495e-04  7.0272135653832459e-04  7.0272135652146460e-04  7.0272135650093501e-04  7.0272135647650447e-04  7.0272135644814998e-04  7.0272135641616753e-04  7.0272135638130046e-04  7.0272135634486237e-04  7.0272135630887141e-04  7.0272135627613436e-04  7.0272135625025576e-04  7.0272135623554986e-04  7.0272135623681924e-04  7.0272135625900093e-04  7.0272135630674074e-04  7.0272135638396282e-04  7.0272135649351712e-04  7.0272135663702016e-04  7.0272135681491801e-04  7.0272135702680646e-04  7.0272135727194262e-04  7.0272135754987416e-04  7.0272135786110545e-04  7.0272135820769019e-04  7.0272135859366985e-04  7.0272135902533714e-04  7.0272135951128978e-04  7.0272136006229910e-04  7.0272136069105006e-04  7.0272136141171860e-04  7.0272136223934628e-04  7.0272136318896535e-04  7.0272136427445469e-04  7.0272136550733329e-04  7.0272136689604838e-04  7.0272136844672811e-04  7.0272137016702150e-04  7.0272137207553348e-04  7.0272137422048696e-04  7.0272137671231467e-04  7.0272137977486207e-04  7.0272138381650799e-04  7.0272138951321585e-04  7.0272139787787638e-04  7.0272141026568591e-04  7.0272142824312663e-04  7.0272145324919784e-04  7.0272148603006484e-04  7.0272152594604638e-04  7.0272157039901178e-04  7.0272161471503529e-04  7.0272165274737667e-04  7.0272167822319712e-04  7.0272168649603809e-04  7.0272167601562489e-04  7.0272164878825848e-04  7.0272160959738116e-04  7.0272156444342441e-04  7.0272151896260847e-04  7.0272147738001801e-04  7.0272144214916462e-04  7.0272141412642273e-04  7.0272139301910176e-04  7.0272137788014721e-04  7.0272136751442916e-04  7.0272136074873721e-04  7.0272135657418566e-04  7.0272135419476782e-04  7.0272135301921012e-04  7.0272135262606930e-04  7.0272135272197393e-04  7.0272135310402899e-04  7.0272135363108981e-04  7.0272135420444172e-04  7.0272135475618744e-04  7.0272135524278214e-04  7.0272135564105080e-04  7.0272135594475079e-04  7.0272135616061154e-04  7.0272135630372384e-04  7.0272135639279343e-04  7.0272135644605595e-04  7.0272135647850937e-04  7.0272135650068846e-04  7.0272135651885405e-04  7.0272135653608333e-04  7.0272135655364350e-04  7.0272135657195589e-04  7.0272135658942304e-04  1.4097632002939551e-03  1.4097632002846735e-03  7.0272135658987320e-04  7.0272135658909648e-04  7.0272135658780541e-04  7.0272135658587748e-04  7.0272135658312100e-04  7.0272135657928813e-04  7.0272135657408375e-04  7.0272135656717282e-04  7.0272135655819129e-04  7.0272135654677638e-04  7.0272135653260044e-04  7.0272135651542819e-04  7.0272135649521129e-04  7.0272135647220560e-04  7.0272135644713516e-04  7.0272135642140965e-04  7.0272135639738741e-04  7.0272135637865956e-04  7.0272135637034091e-04  7.0272135637928211e-04  7.02721356414