<?xml version="1.0"?>
<VTKFile type="UnstructuredGrid"  version="0.1"  >
<UnstructuredGrid>
<Piece  NumberOfPoints="5151" NumberOfCells="10000">
<Points>
<DataArray  type="Float64"  NumberOfComponents="3"  format="ascii">0 0 0  0.02 0 0  0.04 0 0  0.06 0 0  0.08 0 0  0.1 0 0  0.12 0 0  0.14 0 0  0.16 0 0  0.18 0 0  0.2 0 0  0.22 0 0  0.24 0 0  0.26 0 0  0.28 0 0  0.3 0 0  0.32 0 0  0.34 0 0  0.36 0 0  0.38 0 0  0.4 0 0  0.42 0 0  0.44 0 0  0.46 0 0  0.48 0 0  0.5 0 0  0.52 0 0  0.54 0 0  0.5600000000000001 0 0  0.58 0 0  0.6 0 0  0.62 0 0  0.64 0 0  0.66 0 0  0.68 0 0  0.7 0 0  0.72 0 0  0.74 0 0  0.76 0 0  0.78 0 0  0.8 0 0  0.82 0 0  0.84 0 0  0.86 0 0  0.88 0 0  0.9 0 0  0.92 0 0  0.9399999999999999 0 0  0.96 0 0  0.98 0 0  1 0 0  1.02 0 0  1.04 0 0  1.06 0 0  1.08 0 0  1.1 0 0  1.12 0 0  1.14 0 0  1.16 0 0  1.18 0 0  1.2 0 0  1.22 0 0  1.24 0 0  1.26 0 0  1.28 0 0  1.3 0 0  1.32 0 0  1.34 0 0  1.36 0 0  1.38 0 0  1.4 0 0  1.42 0 0  1.44 0 0  1.46 0 0  1.48 0 0  1.5 0 0  1.52 0 0  1.54 0 0  1.56 0 0  1.58 0 0  1.6 0 0  1.62 0 0  1.64 0 0  1.66 0 0  1.68 0 0  1.7 0 0  1.72 0 0  1.74 0 0  1.76 0 0  1.78 0 0  1.8 0 0  1.82 0 0  1.84 0 0  1.86 0 0  1.88 0 0  1.9 0 0  1.92 0 0  1.94 0 0  1.96 0 0  1.98 0 0  2 0 0  0 0.02 0  0.02 0.02 0  0.04 0.02 0  0.06 0.02 0  0.08 0.02 0  0.1 0.02 0  0.12 0.02 0  0.14 0.02 0  0.16 0.02 0  0.18 0.02 0  0.2 0.02 0  0.22 0.02 0  0.24 0.02 0  0.26 0.02 0  0.28 0.02 0  0.3 0.02 0  0.32 0.02 0  0.34 0.02 0  0.36 0.02 0  0.38 0.02 0  0.4 0.02 0  0.42 0.02 0  0.44 0.02 0  0.46 0.02 0  0.48 0.02 0  0.5 0.02 0  0.52 0.02 0  0.54 0.02 0  0.5600000000000001 0.02 0  0.58 0.02 0  0.6 0.02 0  0.62 0.02 0  0.64 0.02 0  0.66 0.02 0  0.68 0.02 0  0.7 0.02 0  0.72 0.02 0  0.74 0.02 0  0.76 0.02 0  0.78 0.02 0  0.8 0.02 0  0.82 0.02 0  0.84 0.02 0  0.86 0.02 0  0.88 0.02 0  0.9 0.02 0  0.92 0.02 0  0.9399999999999999 0.02 0  0.96 0.02 0  0.98 0.02 0  1 0.02 0  1.02 0.02 0  1.04 0.02 0  1.06 0.02 0  1.08 0.02 0  1.1 0.02 0  1.12 0.02 0  1.14 0.02 0  1.16 0.02 0  1.18 0.02 0  1.2 0.02 0  1.22 0.02 0  1.24 0.02 0  1.26 0.02 0  1.28 0.02 0  1.3 0.02 0  1.32 0.02 0  1.34 0.02 0  1.36 0.02 0  1.38 0.02 0  1.4 0.02 0  1.42 0.02 0  1.44 0.02 0  1.46 0.02 0  1.48 0.02 0  1.5 0.02 0  1.52 0.02 0  1.54 0.02 0  1.56 0.02 0  1.58 0.02 0  1.6 0.02 0  1.62 0.02 0  1.64 0.02 0  1.66 0.02 0  1.68 0.02 0  1.7 0.02 0  1.72 0.02 0  1.74 0.02 0  1.76 0.02 0  1.78 0.02 0  1.8 0.02 0  1.82 0.02 0  1.84 0.02 0  1.86 0.02 0  1.88 0.02 0  1.9 0.02 0  1.92 0.02 0  1.94 0.02 0  1.96 0.02 0  1.98 0.02 0  2 0.02 0  0 0.04 0  0.02 0.04 0  0.04 0.04 0  0.06 0.04 0  0.08 0.04 0  0.1 0.04 0  0.12 0.04 0  0.14 0.04 0  0.16 0.04 0  0.18 0.04 0  0.2 0.04 0  0.22 0.04 0  0.24 0.04 0  0.26 0.04 0  0.28 0.04 0  0.3 0.04 0  0.32 0.04 0  0.34 0.04 0  0.36 0.04 0  0.38 0.04 0  0.4 0.04 0  0.42 0.04 0  0.44 0.04 0  0.46 0.04 0  0.48 0.04 0  0.5 0.04 0  0.52 0.04 0  0.54 0.04 0  0.5600000000000001 0.04 0  0.58 0.04 0  0.6 0.04 0  0.62 0.04 0  0.64 0.04 0  0.66 0.04 0  0.68 0.04 0  0.7 0.04 0  0.72 0.04 0  0.74 0.04 0  0.76 0.04 0  0.78 0.04 0  0.8 0.04 0  0.82 0.04 0  0.84 0.04 0  0.86 0.04 0  0.88 0.04 0  0.9 0.04 0  0.92 0.04 0  0.9399999999999999 0.04 0  0.96 0.04 0  0.98 0.04 0  1 0.04 0  1.02 0.04 0  1.04 0.04 0  1.06 0.04 0  1.08 0.04 0  1.1 0.04 0  1.12 0.04 0  1.14 0.04 0  1.16 0.04 0  1.18 0.04 0  1.2 0.04 0  1.22 0.04 0  1.24 0.04 0  1.26 0.04 0  1.28 0.04 0  1.3 0.04 0  1.32 0.04 0  1.34 0.04 0  1.36 0.04 0  1.38 0.04 0  1.4 0.04 0  1.42 0.04 0  1.44 0.04 0  1.46 0.04 0  1.48 0.04 0  1.5 0.04 0  1.52 0.04 0  1.54 0.04 0  1.56 0.04 0  1.58 0.04 0  1.6 0.04 0  1.62 0.04 0  1.64 0.04 0  1.66 0.04 0  1.68 0.04 0  1.7 0.04 0  1.72 0.04 0  1.74 0.04 0  1.76 0.04 0  1.78 0.04 0  1.8 0.04 0  1.82 0.04 0  1.84 0.04 0  1.86 0.04 0  1.88 0.04 0  1.9 0.04 0  1.92 0.04 0  1.94 0.04 0  1.96 0.04 0  1.98 0.04 0  2 0.04 0  0 0.06 0  0.02 0.06 0  0.04 0.06 0  0.06 0.06 0  0.08 0.06 0  0.1 0.06 0  0.12 0.06 0  0.14 0.06 0  0.16 0.06 0  0.18 0.06 0  0.2 0.06 0  0.22 0.06 0  0.24 0.06 0  0.26 0.06 0  0.28 0.06 0  0.3 0.06 0  0.32 0.06 0  0.34 0.06 0  0.36 0.06 0  0.38 0.06 0  0.4 0.06 0  0.42 0.06 0  0.44 0.06 0  0.46 0.06 0  0.48 0.06 0  0.5 0.06 0  0.52 0.06 0  0.54 0.06 0  0.5600000000000001 0.06 0  0.58 0.06 0  0.6 0.06 0  0.62 0.06 0  0.64 0.06 0  0.66 0.06 0  0.68 0.06 0  0.7 0.06 0  0.72 0.06 0  0.74 0.06 0  0.76 0.06 0  0.78 0.06 0  0.8 0.06 0  0.82 0.06 0  0.84 0.06 0  0.86 0.06 0  0.88 0.06 0  0.9 0.06 0  0.92 0.06 0  0.9399999999999999 0.06 0  0.96 0.06 0  0.98 0.06 0  1 0.06 0  1.02 0.06 0  1.04 0.06 0  1.06 0.06 0  1.08 0.06 0  1.1 0.06 0  1.12 0.06 0  1.14 0.06 0  1.16 0.06 0  1.18 0.06 0  1.2 0.06 0  1.22 0.06 0  1.24 0.06 0  1.26 0.06 0  1.28 0.06 0  1.3 0.06 0  1.32 0.06 0  1.34 0.06 0  1.36 0.06 0  1.38 0.06 0  1.4 0.06 0  1.42 0.06 0  1.44 0.06 0  1.46 0.06 0  1.48 0.06 0  1.5 0.06 0  1.52 0.06 0  1.54 0.06 0  1.56 0.06 0  1.58 0.06 0  1.6 0.06 0  1.62 0.06 0  1.64 0.06 0  1.66 0.06 0  1.68 0.06 0  1.7 0.06 0  1.72 0.06 0  1.74 0.06 0  1.76 0.06 0  1.78 0.06 0  1.8 0.06 0  1.82 0.06 0  1.84 0.06 0  1.86 0.06 0  1.88 0.06 0  1.9 0.06 0  1.92 0.06 0  1.94 0.06 0  1.96 0.06 0  1.98 0.06 0  2 0.06 0  0 0.08 0  0.02 0.08 0  0.04 0.08 0  0.06 0.08 0  0.08 0.08 0  0.1 0.08 0  0.12 0.08 0  0.14 0.08 0  0.16 0.08 0  0.18 0.08 0  0.2 0.08 0  0.22 0.08 0  0.24 0.08 0  0.26 0.08 0  0.28 0.08 0  0.3 0.08 0  0.32 0.08 0  0.34 0.08 0  0.36 0.08 0  0.38 0.08 0  0.4 0.08 0  0.42 0.08 0  0.44 0.08 0  0.46 0.08 0  0.48 0.08 0  0.5 0.08 0  0.52 0.08 0  0.54 0.08 0  0.5600000000000001 0.08 0  0.58 0.08 0  0.6 0.08 0  0.62 0.08 0  0.64 0.08 0  0.66 0.08 0  0.68 0.08 0  0.7 0.08 0  0.72 0.08 0  0.74 0.08 0  0.76 0.08 0  0.78 0.08 0  0.8 0.08 0  0.82 0.08 0  0.84 0.08 0  0.86 0.08 0  0.88 0.08 0  0.9 0.08 0  0.92 0.08 0  0.9399999999999999 0.08 0  0.96 0.08 0  0.98 0.08 0  1 0.08 0  1.02 0.08 0  1.04 0.08 0  1.06 0.08 0  1.08 0.08 0  1.1 0.08 0  1.12 0.08 0  1.14 0.08 0  1.16 0.08 0  1.18 0.08 0  1.2 0.08 0  1.22 0.08 0  1.24 0.08 0  1.26 0.08 0  1.28 0.08 0  1.3 0.08 0  1.32 0.08 0  1.34 0.08 0  1.36 0.08 0  1.38 0.08 0  1.4 0.08 0  1.42 0.08 0  1.44 0.08 0  1.46 0.08 0  1.48 0.08 0  1.5 0.08 0  1.52 0.08 0  1.54 0.08 0  1.56 0.08 0  1.58 0.08 0  1.6 0.08 0  1.62 0.08 0  1.64 0.08 0  1.66 0.08 0  1.68 0.08 0  1.7 0.08 0  1.72 0.08 0  1.74 0.08 0  1.76 0.08 0  1.78 0.08 0  1.8 0.08 0  1.82 0.08 0  1.84 0.08 0  1.86 0.08 0  1.88 0.08 0  1.9 0.08 0  1.92 0.08 0  1.94 0.08 0  1.96 0.08 0  1.98 0.08 0  2 0.08 0  0 0.1 0  0.02 0.1 0  0.04 0.1 0  0.06 0.1 0  0.08 0.1 0  0.1 0.1 0  0.12 0.1 0  0.14 0.1 0  0.16 0.1 0  0.18 0.1 0  0.2 0.1 0  0.22 0.1 0  0.24 0.1 0  0.26 0.1 0  0.28 0.1 0  0.3 0.1 0  0.32 0.1 0  0.34 0.1 0  0.36 0.1 0  0.38 0.1 0  0.4 0.1 0  0.42 0.1 0  0.44 0.1 0  0.46 0.1 0  0.48 0.1 0  0.5 0.1 0  0.52 0.1 0  0.54 0.1 0  0.5600000000000001 0.1 0  0.58 0.1 0  0.6 0.1 0  0.62 0.1 0  0.64 0.1 0  0.66 0.1 0  0.68 0.1 0  0.7 0.1 0  0.72 0.1 0  0.74 0.1 0  0.76 0.1 0  0.78 0.1 0  0.8 0.1 0  0.82 0.1 0  0.84 0.1 0  0.86 0.1 0  0.88 0.1 0  0.9 0.1 0  0.92 0.1 0  0.9399999999999999 0.1 0  0.96 0.1 0  0.98 0.1 0  1 0.1 0  1.02 0.1 0  1.04 0.1 0  1.06 0.1 0  1.08 0.1 0  1.1 0.1 0  1.12 0.1 0  1.14 0.1 0  1.16 0.1 0  1.18 0.1 0  1.2 0.1 0  1.22 0.1 0  1.24 0.1 0  1.26 0.1 0  1.28 0.1 0  1.3 0.1 0  1.32 0.1 0  1.34 0.1 0  1.36 0.1 0  1.38 0.1 0  1.4 0.1 0  1.42 0.1 0  1.44 0.1 0  1.46 0.1 0  1.48 0.1 0  1.5 0.1 0  1.52 0.1 0  1.54 0.1 0  1.56 0.1 0  1.58 0.1 0  1.6 0.1 0  1.62 0.1 0  1.64 0.1 0  1.66 0.1 0  1.68 0.1 0  1.7 0.1 0  1.72 0.1 0  1.74 0.1 0  1.76 0.1 0  1.78 0.1 0  1.8 0.1 0  1.82 0.1 0  1.84 0.1 0  1.86 0.1 0  1.88 0.1 0  1.9 0.1 0  1.92 0.1 0  1.94 0.1 0  1.96 0.1 0  1.98 0.1 0  2 0.1 0  0 0.12 0  0.02 0.12 0  0.04 0.12 0  0.06 0.12 0  0.08 0.12 0  0.1 0.12 0  0.12 0.12 0  0.14 0.12 0  0.16 0.12 0  0.18 0.12 0  0.2 0.12 0  0.22 0.12 0  0.24 0.12 0  0.26 0.12 0  0.28 0.12 0  0.3 0.12 0  0.32 0.12 0  0.34 0.12 0  0.36 0.12 0  0.38 0.12 0  0.4 0.12 0  0.42 0.12 0  0.44 0.12 0  0.46 0.12 0  0.48 0.12 0  0.5 0.12 0  0.52 0.12 0  0.54 0.12 0  0.5600000000000001 0.12 0  0.58 0.12 0  0.6 0.12 0  0.62 0.12 0  0.64 0.12 0  0.66 0.12 0  0.68 0.12 0  0.7 0.12 0  0.72 0.12 0  0.74 0.12 0  0.76 0.12 0  0.78 0.12 0  0.8 0.12 0  0.82 0.12 0  0.84 0.12 0  0.86 0.12 0  0.88 0.12 0  0.9 0.12 0  0.92 0.12 0  0.9399999999999999 0.12 0  0.96 0.12 0  0.98 0.12 0  1 0.12 0  1.02 0.12 0  1.04 0.12 0  1.06 0.12 0  1.08 0.12 0  1.1 0.12 0  1.12 0.12 0  1.14 0.12 0  1.16 0.12 0  1.18 0.12 0  1.2 0.12 0  1.22 0.12 0  1.24 0.12 0  1.26 0.12 0  1.28 0.12 0  1.3 0.12 0  1.32 0.12 0  1.34 0.12 0  1.36 0.12 0  1.38 0.12 0  1.4 0.12 0  1.42 0.12 0  1.44 0.12 0  1.46 0.12 0  1.48 0.12 0  1.5 0.12 0  1.52 0.12 0  1.54 0.12 0  1.56 0.12 0  1.58 0.12 0  1.6 0.12 0  1.62 0.12 0  1.64 0.12 0  1.66 0.12 0  1.68 0.12 0  1.7 0.12 0  1.72 0.12 0  1.74 0.12 0  1.76 0.12 0  1.78 0.12 0  1.8 0.12 0  1.82 0.12 0  1.84 0.12 0  1.86 0.12 0  1.88 0.12 0  1.9 0.12 0  1.92 0.12 0  1.94 0.12 0  1.96 0.12 0  1.98 0.12 0  2 0.12 0  0 0.14 0  0.02 0.14 0  0.04 0.14 0  0.06 0.14 0  0.08 0.14 0  0.1 0.14 0  0.12 0.14 0  0.14 0.14 0  0.16 0.14 0  0.18 0.14 0  0.2 0.14 0  0.22 0.14 0  0.24 0.14 0  0.26 0.14 0  0.28 0.14 0  0.3 0.14 0  0.32 0.14 0  0.34 0.14 0  0.36 0.14 0  0.38 0.14 0  0.4 0.14 0  0.42 0.14 0  0.44 0.14 0  0.46 0.14 0  0.48 0.14 0  0.5 0.14 0  0.52 0.14 0  0.54 0.14 0  0.5600000000000001 0.14 0  0.58 0.14 0  0.6 0.14 0  0.62 0.14 0  0.64 0.14 0  0.66 0.14 0  0.68 0.14 0  0.7 0.14 0  0.72 0.14 0  0.74 0.14 0  0.76 0.14 0  0.78 0.14 0  0.8 0.14 0  0.82 0.14 0  0.84 0.14 0  0.86 0.14 0  0.88 0.14 0  0.9 0.14 0  0.92 0.14 0  0.9399999999999999 0.14 0  0.96 0.14 0  0.98 0.14 0  1 0.14 0  1.02 0.14 0  1.04 0.14 0  1.06 0.14 0  1.08 0.14 0  1.1 0.14 0  1.12 0.14 0  1.14 0.14 0  1.16 0.14 0  1.18 0.14 0  1.2 0.14 0  1.22 0.14 0  1.24 0.14 0  1.26 0.14 0  1.28 0.14 0  1.3 0.14 0  1.32 0.14 0  1.34 0.14 0  1.36 0.14 0  1.38 0.14 0  1.4 0.14 0  1.42 0.14 0  1.44 0.14 0  1.46 0.14 0  1.48 0.14 0  1
[...]
<PointData  Scalars="sols[i]"> 
<DataArray  type="Float64"  Name="sols[i]"  format="ascii">7.1849565160286870e-03  6.6810381670138639e-03  6.6810381670139932e-03  6.6810381670142248e-03  6.6810381670146099e-03  6.6810381670152430e-03  6.6810381670162977e-03  6.6810381670180654e-03  6.6810381670210335e-03  6.6810381670259463e-03  6.6810381670338922e-03  6.6810381670464082e-03  6.6810381670655708e-03  6.6810381670941122e-03  6.6810381671355296e-03  6.6810381671941355e-03  6.6810381672752087e-03  6.6810381673849673e-03  6.6810381675306181e-03  6.6810381677203500e-03  6.6810381679632252e-03  6.6810381682691029e-03  6.6810381686485077e-03  6.6810381691124535e-03  6.6810381696722895e-03  6.6810381703395760e-03  6.6810381711259253e-03  6.6810381720429600e-03  6.6810381731023079e-03  6.6810381743156212e-03  6.6810381756947021e-03  6.6810381772516537e-03  6.6810381789990311e-03  6.6810381809499983e-03  6.6810381831184885e-03  6.6810381855191871e-03  6.6810381881675322e-03  6.6810381910795110e-03  6.6810381942713467e-03  6.6810381977589839e-03  6.6810382015574645e-03  6.6810382056800783e-03  6.6810382101374129e-03  6.6810382149362435e-03  6.6810382200783872e-03  6.6810382255595279e-03  6.6810382313682260e-03  6.6810382374851039e-03  6.6810382438825160e-03  6.6810382505247254e-03  6.6810382573685937e-03  6.6810382643648350e-03  6.6810382714591922e-03  6.6810382785929033e-03  6.6810382857013743e-03  6.6810382927098661e-03  6.6810382995255557e-03  6.6810383060264102e-03  6.6810383120492704e-03  6.6810383173813888e-03  6.6810383217611839e-03  6.6810383248932220e-03  6.6810383264793646e-03  6.6810383262627766e-03  6.6810383240755965e-03  6.6810383198775605e-03  6.6810383137735716e-03  6.6810383060042179e-03  6.6810382969120195e-03  6.6810382868933045e-03  6.6810382763488295e-03  6.6810382656437321e-03  6.6810382550826089e-03  6.6810382449000085e-03  6.6810382352628815e-03  6.6810382262801424e-03  6.6810382180148955e-03  6.6810382104961711e-03  6.6810382037285551e-03  6.6810381976993172e-03  6.6810381923833283e-03  6.6810381877463491e-03  6.6810381837472737e-03  6.6810381803399307e-03  6.6810381774744850e-03  6.6810381750987613e-03  6.6810381731594835e-03  6.6810381716033663e-03  6.6810381703781311e-03  6.6810381694333617e-03  6.6810381687213219e-03  6.6810381681976748e-03  6.6810381678222451e-03  6.6810381675596660e-03  6.6810381673799877e-03  6.6810381672591139e-03  6.6810381671788465e-03  6.6810381671265021e-03  6.6810381670941894e-03  6.6810381670778908e-03  9.1023433662818683e-03  6.6810381670138509e-03  5.8342838820533739e-03  5.8342838820533011e-03  5.8342838820531632e-03  5.8342838820529186e-03  5.8342838820524927e-03  5.8342838820517441e-03  5.8342838820504735e-03  5.8342838820483623e-03  5.8342838820449137e-03  5.8342838820394545e-03  5.8342838820310437e-03  5.8342838820183993e-03  5.8342838819998881e-03  5.8342838819734552e-03  5.8342838819365143e-03  5.8342838818859879e-03  5.8342838818182825e-03  5.8342838817291914e-03  5.8342838816140014e-03  5.8342838814675318e-03  5.8342838812841117e-03  5.8342838810577016e-03  5.8342838807820254e-03  5.8342838804505207e-03  5.8342838800565042e-03  5.8342838795932290e-03  5.8342838790538445e-03  5.8342838784314691e-03  5.8342838777190814e-03  5.8342838769095710e-03  5.8342838759956831e-03  5.8342838749698474e-03  5.8342838738242066e-03  5.8342838725505717e-03  5.8342838711403352e-03  5.8342838695846335e-03  5.8342838678744520e-03  5.8342838660006887e-03  5.8342838639545433e-03  5.8342838617278505e-03  5.8342838593134581e-03  5.8342838567059067e-03  5.8342838539020654e-03  5.8342838509017787e-03  5.8342838477088016e-03  5.8342838443317816e-03  5.8342838407852027e-03  5.8342838370907023e-03  5.8342838332783135e-03  5.8342838293875968e-03  5.8342838254688435e-03  5.8342838215836978e-03  5.8342838178049488e-03  5.8342838142150079e-03  5.8342838109024858e-03  5.8342838079568481e-03  5.8342838054611518e-03  5.8342838034847171e-03  5.8342838020768025e-03  5.8342838012632649e-03  5.8342838010479528e-03  5.8342838014180352e-03  5.8342838023516790e-03  5.8342838038253899e-03  5.8342838058182914e-03  5.8342838083120432e-03  5.8342838112865536e-03  5.8342838147136195e-03  5.8342838185507671e-03  5.8342838227382777e-03  5.8342838271996621e-03  5.8342838318453955e-03  5.8342838365792208e-03  5.8342838413049285e-03  5.8342838459325211e-03  5.8342838503829993e-03  5.8342838545913491e-03  5.8342838585078594e-03  5.8342838620980969e-03  5.8342838653418442e-03  5.8342838682315249e-03  5.8342838707700186e-03  5.8342838729689081e-03  5.8342838748464973e-03  5.8342838764258425e-03  5.8342838777333790e-03  5.8342838787975755e-03  5.8342838796478311e-03  5.8342838803135469e-03  5.8342838808233387e-03  5.8342838812043517e-03  5.8342838814816715e-03  5.8342838816778618e-03  5.8342838818124156e-03  5.8342838819017522e-03  5.8342838819591637e-03  5.8342838819947108e-03  5.8342838820155700e-03  5.8342838820262958e-03  6.6810381670824402e-03  6.6810381670139437e-03  5.8342838820533245e-03  5.8342838820532482e-03  5.8342838820530721e-03  5.8342838820527338e-03  5.8342838820521032e-03  5.8342838820509627e-03  5.8342838820490354e-03  5.8342838820458981e-03  5.8342838820409516e-03  5.8342838820334454e-03  5.8342838820223519e-03  5.8342838820063542e-03  5.8342838819838289e-03  5.8342838819527964e-03  5.8342838819108369e-03  5.8342838818551375e-03  5.8342838817825047e-03  5.8342838816892659e-03  5.8342838815713923e-03  5.8342838814245436e-03  5.8342838812440092e-03  5.8342838810248694e-03  5.8342838807620380e-03  5.8342838804502162e-03  5.8342838800839987e-03  5.8342838796579012e-03  5.8342838791662745e-03  5.8342838786033758e-03  5.8342838779632117e-03  5.8342838772396360e-03  5.8342838764263161e-03  5.8342838755165976e-03  5.8342838745035815e-03  5.8342838733801486e-03  5.8342838721389071e-03  5.8342838707724047e-03  5.8342838692732289e-03  5.8342838676341078e-03  5.8342838658482004e-03  5.8342838639094344e-03  5.8342838618127358e-03  5.8342838595546054e-03  5.8342838571335716e-03  5.8342838545506464e-03  5.8342838518100695e-03  5.8342838489201026e-03  5.8342838458939061e-03  5.8342838427508873e-03  5.8342838395182292e-03  5.8342838362325389e-03  5.8342838329417841e-03  5.8342838297067313e-03  5.8342838266012701e-03  5.8342838237104479e-03  5.8342838211252659e-03  5.8342838189335347e-03  5.8342838172073105e-03  5.8342838159899588e-03  5.8342838152864078e-03  5.8342838150609935e-03  5.8342838152462264e-03  5.8342838157607454e-03  5.8342838165318265e-03  5.8342838175152014e-03  5.8342838187055409e-03  5.8342838201340648e-03  5.8342838218544491e-03  5.8342838239224338e-03  5.8342838263759226e-03  5.8342838292219489e-03  5.8342838324323366e-03  5.8342838359472160e-03  5.8342838396842501e-03  5.8342838435495887e-03  5.8342838474481672e-03  5.8342838512917992e-03  5.8342838550044674e-03  5.8342838585250358e-03  5.8342838618079228e-03  5.8342838648223587e-03  5.8342838675508393e-03  5.8342838699869740e-03  5.8342838721336231e-03  5.8342838740008890e-03  5.8342838756040979e-03  5.8342838769624055e-03  5.8342838780974125e-03  5.8342838790320728e-03  5.8342838797897523e-03  5.8342838803935020e-03  5.8342838808654353e-03  5.8342838812263037e-03  5.8342838814952162e-03  5.8342838816893396e-03  5.8342838818241259e-03  5.8342838819133800e-03  5.8342838819689484e-03  5.8342838820006297e-03  5.8342838820157825e-03  6.6810381671194912e-03  6.6810381670140790e-03  5.8342838820532447e-03  5.8342838820531380e-03  5.8342838820528761e-03  5.8342838820523287e-03  5.8342838820513209e-03  5.8342838820495515e-03  5.8342838820466293e-03  5.8342838820420184e-03  5.8342838820350015e-03  5.8342838820247076e-03  5.8342838820100301e-03  5.8342838819895881e-03  5.8342838819617771e-03  5.8342838819247164e-03  5.8342838818761849e-03  5.8342838818137297e-03  5.8342838817346697e-03  5.8342838816360281e-03  5.8342838815146876e-03  5.8342838813674322e-03  5.8342838811908746e-03  5.8342838809816167e-03  5.8342838807362487e-03  5.8342838804512449e-03  5.8342838801230257e-03  5.8342838797478857e-03  5.8342838793218818e-03  5.8342838788408317e-03  5.8342838783001661e-03  5.8342838776950425e-03  5.8342838770203409e-03  5.8342838762706194e-03  5.8342838754403019e-03  5.8342838745237546e-03  5.8342838735153330e-03  5.8342838724096454e-03  5.8342838712016872e-03  5.8342838698868856e-03  5.8342838684613879e-03  5.8342838669222337e-03  5.8342838652674697e-03  5.8342838634964549e-03  5.8342838616100810e-03  5.8342838596109042e-03  5.8342838575035768e-03  5.8342838552954334e-03  5.8342838529973733e-03  5.8342838506255882e-03  5.8342838482040183e-03  5.8342838457676105e-03  5.8342838433665008e-03  5.8342838410699559e-03  5.8342838389684312e-03  5.8342838371711466e-03  5.8342838357961562e-03  5.8342838349509938e-03  5.8342838347047168e-03  5.8342838350580305e-03  5.8342838359216739e-03  5.8342838371151706e-03  5.8342838383938448e-03  5.8342838395003165e-03  5.8342838402270208e-03  5.8342838404699289e-03  5.8342838402554763e-03  5.8342838397314493e-03  5.8342838391256457e-03  5.8342838386879117e-03  5.8342838386348525e-03  5.8342838391128816e-03  5.8342838401845279e-03  5.8342838418348085e-03  5.8342838439904808e-03  5.8342838465432400e-03  5.8342838493710344e-03  5.8342838523542627e-03  5.8342838553861387e-03  5.8342838583779113e-03  5.8342838612603191e-03  5.8342838639826875e-03  5.8342838665107520e-03  5.8342838688238150e-03  5.8342838709122338e-03  5.8342838727749573e-03  5.8342838744171307e-03  5.8342838758485109e-03  5.8342838770819539e-03  5.8342838781322674e-03  5.8342838790152859e-03  5.8342838797471753e-03  5.8342838803439054e-03  5.8342838808209613e-03  5.8342838811932425e-03  5.8342838814749954e-03  5.8342838816801586e-03  5.8342838818224788e-03  5.8342838819149907e-03  5.8342838819694107e-03  5.8342838819954333e-03  6.6810381672017258e-03  6.6810381670142751e-03  5.8342838820531328e-03  5.8342838820529619e-03  5.8342838820525265e-03  5.8342838820516617e-03  5.8342838820501126e-03  5.8342838820474958e-03  5.8342838820433169e-03  5.8342838820369287e-03  5.8342838820274910e-03  5.8342838820140330e-03  5.8342838819953578e-03  5.8342838819700664e-03  5.8342838819366019e-03  5.8342838818932347e-03  5.8342838818380479e-03  5.8342838817690484e-03  5.8342838816842464e-03  5.8342838815815959e-03  5.8342838814591912e-03  5.8342838813153167e-03  5.8342838811484060e-03  5.8342838809571597e-03  5.8342838807405040e-03  5.8342838804974085e-03  5.8342838802268298e-03  5.8342838799275432e-03  5.8342838795978980e-03  5.8342838792357528e-03  5.8342838788383190e-03  5.8342838784023075e-03  5.8342838779240494e-03  5.8342838773995992e-03  5.8342838768250770e-03  5.8342838761969639e-03  5.8342838755122538e-03  5.8342838747688086e-03  5.8342838739655310e-03  5.8342838731023378e-03  5.8342838721803418e-03  5.8342838712018051e-03  5.8342838701699647e-03  5.8342838690889501e-03  5.8342838679634927e-03  5.8342838667984837e-03  5.8342838655988946e-03  5.8342838643700217e-03  5.8342838631185679e-03  5.8342838618554360e-03  5.8342838606006307e-03  5.8342838593907018e-03  5.8342838582889356e-03  5.8342838573962261e-03  5.8342838568588217e-03  5.8342838568662082e-03  5.8342838576306878e-03  5.8342838593422788e-03  5.8342838620997362e-03  5.8342838658331205e-03  5.8342838702463897e-03  5.8342838748142289e-03  5.8342838788546817e-03  5.8342838816686140e-03  5.8342838827076682e-03  5.8342838817166450e-03  5.8342838788017310e-03  5.8342838744000524e-03  5.8342838691630965e-03  5.8342838637990384e-03  5.8342838589283252e-03  5.8342838549918742e-03  5.8342838522219727e-03  5.8342838506634876e-03  5.8342838502235626e-03  5.8342838507276238e-03  5.8342838519679485e-03  5.8342838537384254e-03  5.8342838558551975e-03  5.8342838581659454e-03  5.8342838605514600e-03  5.8342838629228226e-03  5.8342838652167351e-03  5.8342838673901181e-03  5.8342838694155890e-03  5.8342838712774486e-03  5.8342838729682376e-03  5.8342838744865075e-03  5.8342838758349931e-03  5.8342838770192836e-03  5.8342838780468982e-03  5.8342838789266060e-03  5.8342838796679852e-03  5.8342838802811665e-03  5.8342838807768733e-03  5.8342838811663690e-03  5.8342838814618618e-03  5.8342838816764723e-03  5.8342838818234103e-03  5.8342838819148857e-03  5.8342838819611135e-03  6.6810381673641185e-03  6.6810381670145309e-03  5.8342838820529767e-03  5.8342838820526930e-03  5.8342838820520087e-03  5.8342838820507050e-03  5.8342838820484681e-03  5.8342838820448382e-03  5.8342838820392333e-03  5.8342838820309075e-03  5.8342838820189293e-03  5.8342838820022594e-03  5.8342838819796924e-03  5.8342838819498768e-03  5.8342838819114276e-03  5.8342838818629368e-03  5.8342838818030134e-03  5.8342838817304517e-03  5.8342838816443417e-03  5.8342838815441025e-03  5.8342838814297270e-03  5.8342838813018692e-03  5.8342838811618536e-03  5.8342838810117557e-03  5.8342838808542975e-03  5.8342838806925059e-03  5.8342838805294523e-03  5.8342838803678281e-03  5.8342838802094817e-03  5.8342838800552205e-03  5.8342838799046379e-03  5.8342838797563745e-03  5.8342838796085258e-03  5.8342838794590915e-03  5.8342838793067212e-03  5.8342838791513793e-03  5.8342838789947936e-03  5.8342838788409453e-03  5.8342838786962807e-03  5.8342838785695478e-03  5.8342838784716843e-03  5.8342838784153604e-03  5.8342838784142207e-03  5.8342838784819643e-03  5.8342838786310238e-03  5.8342838788709335e-03  5.8342838792070301e-03  5.8342838796399737e-03  5.8342838801671926e-03  5.8342838807880805e-03  5.8342838815145948e-03  5.8342838823888608e-03  5.8342838835085380e-03  5.8342838850564986e-03  5.8342838873258630e-03  5.8342838907232859e-03  5.8342838957272086e-03  5.8342839027802577e-03  5.8342839121133683e-03  5.8342839235377749e-03  5.8342839362832419e-03  5.8342839489804454e-03  5.8342839598502297e-03  5.8342839670759133e-03  5.8342839692504186e-03  5.8342839657506973e-03  5.8342839569086227e-03  5.8342839439134587e-03  5.8342839284851334e-03  5.8342839124499446e-03  5.8342838973711600e-03  5.8342838843331041e-03  5.8342838738936597e-03  5.8342838661606502e-03  5.8342838609279461e-03  5.8342838578161549e-03  5.8342838563861556e-03  5.8342838562147198e-03  5.8342838569351166e-03  5.8342838582517683e-03  5.8342838599388441e-03  5.8342838618307266e-03  5.8342838638098709e-03  5.8342838657947258e-03  5.8342838677299140e-03  5.8342838695783833e-03  5.8342838713154677e-03  5.8342838729251263e-03  5.8342838743973818e-03  5.8342838757267038e-03  5.8342838769110091e-03  5.8342838779509888e-03  5.8342838788496736e-03  5.8342838796120889e-03  5.8342838802451936e-03  5.8342838807576665e-03  5.8342838811600867e-03  5.8342838814646070e-03  5.8342838816836532e-03  5.8342838818282953e-03  5.8342838819066762e-03  6.6810381676789743e-03  6.6810381670148657e-03  5.8342838820527650e-03  5.8342838820523131e-03  5.8342838820513001e-03  5.8342838820494560e-03  5.8342838820464185e-03  5.8342838820416767e-03  5.8342838820345791e-03  5.8342838820243346e-03  5.8342838820099928e-03  5.8342838819905457e-03  5.8342838819649126e-03  5.8342838819320239e-03  5.8342838818909596e-03  5.8342838818410628e-03  5.8342838817820302e-03  5.8342838817141826e-03  5.8342838816386865e-03  5.8342838815576932e-03  5.8342838814746866e-03  5.8342838813947601e-03  5.8342838813246331e-03  5.8342838812727883e-03  5.8342838812491960e-03  5.8342838812646724e-03  5.8342838813301070e-03  5.8342838814555093e-03  5.8342838816490246e-03  5.8342838819164296e-03  5.8342838822609414e-03  5.8342838826838444e-03  5.8342838831855473e-03  5.8342838837669294e-03  5.8342838844309972e-03  5.8342838851844527e-03  5.8342838860387198e-03  5.8342838870108216e-03  5.8342838881235096e-03  5.8342838894047955e-03  5.8342838908871679e-03  5.8342838926062441e-03  5.8342838945987041e-03  5.8342838968996657e-03  5.8342838995389936e-03  5.8342839025367996e-03  5.8342839058992098e-03  5.8342839096157447e-03  5.8342839136609152e-03  5.8342839180042533e-03  5.8342839226333239e-03  5.8342839275950398e-03  5.8342839330584777e-03  5.8342839393942187e-03  5.8342839472502184e-03  5.8342839575816494e-03  5.8342839715708064e-03  5.8342839903718895e-03  5.8342840146593886e-03  5.8342840440631510e-03  5.8342840767044227e-03  5.8342841091165000e-03  5.8342841367364819e-03  5.8342841549005120e-03  5.8342841600335172e-03  5.8342841506323420e-03  5.8342841276923015e-03  5.8342840944014844e-03  5.8342840552227321e-03  5.8342840147519526e-03  5.8342839767816365e-03  5.8342839438130746e-03  5.8342839170172122e-03  5.8342838964927013e-03  5.8342838816396641e-03  5.8342838715127084e-03  5.8342838650853436e-03  5.8342838614119262e-03  5.8342838597039972e-03  5.8342838593481387e-03  5.8342838598909458e-03  5.8342838610098658e-03  5.8342838624815489e-03  5.8342838641534216e-03  5.8342838659213745e-03  5.8342838677131739e-03  5.8342838694769635e-03  5.8342838711744000e-03  5.8342838727765845e-03  5.8342838742620516e-03  5.8342838756157145e-03  5.8342838768282558e-03  5.8342838778954621e-03  5.8342838788175751e-03  5.8342838795986405e-03  5.8342838802457270e-03  5.8342838807685050e-03  5.8342838811783031e-03  5.8342838814862061e-03  5.8342838817005771e-03  5.8342838818245726e-03  6.6810381682892248e-03  6.6810381670153220e-03  5.8342838820525204e-03  5.8342838820518482e-03  5.8342838820504336e-03  5.8342838820479789e-03  5.8342838820440975e-03  5.8342838820382419e-03  5.8342838820297713e-03  5.8342838820179257e-03  5.8342838820018856e-03  5.8342838819809102e-03  5.8342838819543793e-03  5.8342838819220042e-03  5.8342838818840398e-03  5.8342838818415555e-03  5.8342838817966661e-03  5.8342838817529701e-03  5.8342838817159771e-03  5.8342838816934856e-03  5.8342838816962308e-03  5.8342838817384357e-03  5.8342838818381294e-03  5.8342838820172969e-03  5.8342838823013648e-03  5.8342838827177947e-03  5.8342838832941878e-03  5.8342838840559396e-03  5.8342838850240341e-03  5.8342838862137847e-03  5.8342838876346628e-03  5.8342838892918572e-03  5.8342838911889672e-03  5.8342838933315173e-03  5.8342838957309278e-03  5.8342838984080728e-03  5.8342839013958234e-03  5.8342839047405290e-03  5.8342839085020271e-03  5.8342839127522479e-03  5.8342839175729681e-03  5.8342839230524227e-03  5.8342839292805180e-03  5.8342839363422997e-03  5.8342839443088932e-03  5.8342839532260259e-03  5.8342839631022100e-03  5.8342839738997699e-03  5.8342839855348820e-03  5.8342839978959482e-03  5.8342840108926413e-03  5.8342840245506847e-03  5.8342840391650977e-03  5.8342840555080369e-03  5.8342840750500117e-03  5.8342841000909758e-03  5.8342841336286155e-03  5.8342841787648887e-03  5.8342842375484760e-03  5.8342843094336579e-03  5.8342843899396027e-03  5.8342844703420877e-03  5.8342845389616248e-03  5.8342845838414521e-03  5.8342845959184963e-03  5.8342845716052036e-03  5.8342845138563571e-03  5.8342844312272556e-03  5.8342843352806803e-03  5.8342842375056657e-03  5.8342841469622223e-03  5.8342840692335611e-03  5.8342840065588233e-03  5.8342839586541092e-03  5.8342839237227025e-03  5.8342838993280903e-03  5.8342838829976993e-03  5.8342838725583242e-03  5.8342838662672845e-03  5.8342838628159394e-03  5.8342838612690240e-03  5.8342838609824876e-03  5.8342838615237421e-03  5.8342838626047454e-03  5.8342838640315095e-03  5.8342838656684449e-03  5.8342838674151371e-03  5.8342838691933241e-03  5.8342838709404318e-03  5.8342838726071697e-03  5.8342838741568823e-03  5.8342838755650675e-03  5.8342838768182786e-03  5.8342838779123366e-03  5.8342838788501836e-03  5.8342838796395669e-03  5.8342838802912696e-03  5.8342838808170538e-03  5.8342838812268458e-03  5.8342838815252825e-03  5.8342838817077407e-03  6.6810381694730860e-03  6.6810381670159690e-03  5.8342838820522481e-03  5.8342838820513217e-03  5.8342838820494803e-03  5.8342838820464185e-03  5.8342838820417409e-03  5.8342838820349581e-03  5.8342838820255333e-03  5.8342838820129514e-03  5.8342838819968254e-03  5.8342838819771632e-03  5.8342838819545797e-03  5.8342838819306639e-03  5.8342838819084595e-03  5.8342838818929987e-03  5.8342838818918295e-03  5.8342838819158190e-03  5.8342838819799804e-03  5.8342838821044034e-03  5.8342838823155418e-03  5.8342838826475688e-03  5.83428388314