<?xml version="1.0"?>
<VTKFile type="UnstructuredGrid"  version="0.1"  >
<UnstructuredGrid>
<Piece  NumberOfPoints="5151" NumberOfCells="10000">
<Points>
<DataArray  type="Float64"  NumberOfComponents="3"  format="ascii">0 0 0  0.02 0 0  0.04 0 0  0.06 0 0  0.08 0 0  0.1 0 0  0.12 0 0  0.14 0 0  0.16 0 0  0.18 0 0  0.2 0 0  0.22 0 0  0.24 0 0  0.26 0 0  0.28 0 0  0.3 0 0  0.32 0 0  0.34 0 0  0.36 0 0  0.38 0 0  0.4 0 0  0.42 0 0  0.44 0 0  0.46 0 0  0.48 0 0  0.5 0 0  0.52 0 0  0.54 0 0  0.5600000000000001 0 0  0.58 0 0  0.6 0 0  0.62 0 0  0.64 0 0  0.66 0 0  0.68 0 0  0.7 0 0  0.72 0 0  0.74 0 0  0.76 0 0  0.78 0 0  0.8 0 0  0.82 0 0  0.84 0 0  0.86 0 0  0.88 0 0  0.9 0 0  0.92 0 0  0.9399999999999999 0 0  0.96 0 0  0.98 0 0  1 0 0  1.02 0 0  1.04 0 0  1.06 0 0  1.08 0 0  1.1 0 0  1.12 0 0  1.14 0 0  1.16 0 0  1.18 0 0  1.2 0 0  1.22 0 0  1.24 0 0  1.26 0 0  1.28 0 0  1.3 0 0  1.32 0 0  1.34 0 0  1.36 0 0  1.38 0 0  1.4 0 0  1.42 0 0  1.44 0 0  1.46 0 0  1.48 0 0  1.5 0 0  1.52 0 0  1.54 0 0  1.56 0 0  1.58 0 0  1.6 0 0  1.62 0 0  1.64 0 0  1.66 0 0  1.68 0 0  1.7 0 0  1.72 0 0  1.74 0 0  1.76 0 0  1.78 0 0  1.8 0 0  1.82 0 0  1.84 0 0  1.86 0 0  1.88 0 0  1.9 0 0  1.92 0 0  1.94 0 0  1.96 0 0  1.98 0 0  2 0 0  0 0.02 0  0.02 0.02 0  0.04 0.02 0  0.06 0.02 0  0.08 0.02 0  0.1 0.02 0  0.12 0.02 0  0.14 0.02 0  0.16 0.02 0  0.18 0.02 0  0.2 0.02 0  0.22 0.02 0  0.24 0.02 0  0.26 0.02 0  0.28 0.02 0  0.3 0.02 0  0.32 0.02 0  0.34 0.02 0  0.36 0.02 0  0.38 0.02 0  0.4 0.02 0  0.42 0.02 0  0.44 0.02 0  0.46 0.02 0  0.48 0.02 0  0.5 0.02 0  0.52 0.02 0  0.54 0.02 0  0.5600000000000001 0.02 0  0.58 0.02 0  0.6 0.02 0  0.62 0.02 0  0.64 0.02 0  0.66 0.02 0  0.68 0.02 0  0.7 0.02 0  0.72 0.02 0  0.74 0.02 0  0.76 0.02 0  0.78 0.02 0  0.8 0.02 0  0.82 0.02 0  0.84 0.02 0  0.86 0.02 0  0.88 0.02 0  0.9 0.02 0  0.92 0.02 0  0.9399999999999999 0.02 0  0.96 0.02 0  0.98 0.02 0  1 0.02 0  1.02 0.02 0  1.04 0.02 0  1.06 0.02 0  1.08 0.02 0  1.1 0.02 0  1.12 0.02 0  1.14 0.02 0  1.16 0.02 0  1.18 0.02 0  1.2 0.02 0  1.22 0.02 0  1.24 0.02 0  1.26 0.02 0  1.28 0.02 0  1.3 0.02 0  1.32 0.02 0  1.34 0.02 0  1.36 0.02 0  1.38 0.02 0  1.4 0.02 0  1.42 0.02 0  1.44 0.02 0  1.46 0.02 0  1.48 0.02 0  1.5 0.02 0  1.52 0.02 0  1.54 0.02 0  1.56 0.02 0  1.58 0.02 0  1.6 0.02 0  1.62 0.02 0  1.64 0.02 0  1.66 0.02 0  1.68 0.02 0  1.7 0.02 0  1.72 0.02 0  1.74 0.02 0  1.76 0.02 0  1.78 0.02 0  1.8 0.02 0  1.82 0.02 0  1.84 0.02 0  1.86 0.02 0  1.88 0.02 0  1.9 0.02 0  1.92 0.02 0  1.94 0.02 0  1.96 0.02 0  1.98 0.02 0  2 0.02 0  0 0.04 0  0.02 0.04 0  0.04 0.04 0  0.06 0.04 0  0.08 0.04 0  0.1 0.04 0  0.12 0.04 0  0.14 0.04 0  0.16 0.04 0  0.18 0.04 0  0.2 0.04 0  0.22 0.04 0  0.24 0.04 0  0.26 0.04 0  0.28 0.04 0  0.3 0.04 0  0.32 0.04 0  0.34 0.04 0  0.36 0.04 0  0.38 0.04 0  0.4 0.04 0  0.42 0.04 0  0.44 0.04 0  0.46 0.04 0  0.48 0.04 0  0.5 0.04 0  0.52 0.04 0  0.54 0.04 0  0.5600000000000001 0.04 0  0.58 0.04 0  0.6 0.04 0  0.62 0.04 0  0.64 0.04 0  0.66 0.04 0  0.68 0.04 0  0.7 0.04 0  0.72 0.04 0  0.74 0.04 0  0.76 0.04 0  0.78 0.04 0  0.8 0.04 0  0.82 0.04 0  0.84 0.04 0  0.86 0.04 0  0.88 0.04 0  0.9 0.04 0  0.92 0.04 0  0.9399999999999999 0.04 0  0.96 0.04 0  0.98 0.04 0  1 0.04 0  1.02 0.04 0  1.04 0.04 0  1.06 0.04 0  1.08 0.04 0  1.1 0.04 0  1.12 0.04 0  1.14 0.04 0  1.16 0.04 0  1.18 0.04 0  1.2 0.04 0  1.22 0.04 0  1.24 0.04 0  1.26 0.04 0  1.28 0.04 0  1.3 0.04 0  1.32 0.04 0  1.34 0.04 0  1.36 0.04 0  1.38 0.04 0  1.4 0.04 0  1.42 0.04 0  1.44 0.04 0  1.46 0.04 0  1.48 0.04 0  1.5 0.04 0  1.52 0.04 0  1.54 0.04 0  1.56 0.04 0  1.58 0.04 0  1.6 0.04 0  1.62 0.04 0  1.64 0.04 0  1.66 0.04 0  1.68 0.04 0  1.7 0.04 0  1.72 0.04 0  1.74 0.04 0  1.76 0.04 0  1.78 0.04 0  1.8 0.04 0  1.82 0.04 0  1.84 0.04 0  1.86 0.04 0  1.88 0.04 0  1.9 0.04 0  1.92 0.04 0  1.94 0.04 0  1.96 0.04 0  1.98 0.04 0  2 0.04 0  0 0.06 0  0.02 0.06 0  0.04 0.06 0  0.06 0.06 0  0.08 0.06 0  0.1 0.06 0  0.12 0.06 0  0.14 0.06 0  0.16 0.06 0  0.18 0.06 0  0.2 0.06 0  0.22 0.06 0  0.24 0.06 0  0.26 0.06 0  0.28 0.06 0  0.3 0.06 0  0.32 0.06 0  0.34 0.06 0  0.36 0.06 0  0.38 0.06 0  0.4 0.06 0  0.42 0.06 0  0.44 0.06 0  0.46 0.06 0  0.48 0.06 0  0.5 0.06 0  0.52 0.06 0  0.54 0.06 0  0.5600000000000001 0.06 0  0.58 0.06 0  0.6 0.06 0  0.62 0.06 0  0.64 0.06 0  0.66 0.06 0  0.68 0.06 0  0.7 0.06 0  0.72 0.06 0  0.74 0.06 0  0.76 0.06 0  0.78 0.06 0  0.8 0.06 0  0.82 0.06 0  0.84 0.06 0  0.86 0.06 0  0.88 0.06 0  0.9 0.06 0  0.92 0.06 0  0.9399999999999999 0.06 0  0.96 0.06 0  0.98 0.06 0  1 0.06 0  1.02 0.06 0  1.04 0.06 0  1.06 0.06 0  1.08 0.06 0  1.1 0.06 0  1.12 0.06 0  1.14 0.06 0  1.16 0.06 0  1.18 0.06 0  1.2 0.06 0  1.22 0.06 0  1.24 0.06 0  1.26 0.06 0  1.28 0.06 0  1.3 0.06 0  1.32 0.06 0  1.34 0.06 0  1.36 0.06 0  1.38 0.06 0  1.4 0.06 0  1.42 0.06 0  1.44 0.06 0  1.46 0.06 0  1.48 0.06 0  1.5 0.06 0  1.52 0.06 0  1.54 0.06 0  1.56 0.06 0  1.58 0.06 0  1.6 0.06 0  1.62 0.06 0  1.64 0.06 0  1.66 0.06 0  1.68 0.06 0  1.7 0.06 0  1.72 0.06 0  1.74 0.06 0  1.76 0.06 0  1.78 0.06 0  1.8 0.06 0  1.82 0.06 0  1.84 0.06 0  1.86 0.06 0  1.88 0.06 0  1.9 0.06 0  1.92 0.06 0  1.94 0.06 0  1.96 0.06 0  1.98 0.06 0  2 0.06 0  0 0.08 0  0.02 0.08 0  0.04 0.08 0  0.06 0.08 0  0.08 0.08 0  0.1 0.08 0  0.12 0.08 0  0.14 0.08 0  0.16 0.08 0  0.18 0.08 0  0.2 0.08 0  0.22 0.08 0  0.24 0.08 0  0.26 0.08 0  0.28 0.08 0  0.3 0.08 0  0.32 0.08 0  0.34 0.08 0  0.36 0.08 0  0.38 0.08 0  0.4 0.08 0  0.42 0.08 0  0.44 0.08 0  0.46 0.08 0  0.48 0.08 0  0.5 0.08 0  0.52 0.08 0  0.54 0.08 0  0.5600000000000001 0.08 0  0.58 0.08 0  0.6 0.08 0  0.62 0.08 0  0.64 0.08 0  0.66 0.08 0  0.68 0.08 0  0.7 0.08 0  0.72 0.08 0  0.74 0.08 0  0.76 0.08 0  0.78 0.08 0  0.8 0.08 0  0.82 0.08 0  0.84 0.08 0  0.86 0.08 0  0.88 0.08 0  0.9 0.08 0  0.92 0.08 0  0.9399999999999999 0.08 0  0.96 0.08 0  0.98 0.08 0  1 0.08 0  1.02 0.08 0  1.04 0.08 0  1.06 0.08 0  1.08 0.08 0  1.1 0.08 0  1.12 0.08 0  1.14 0.08 0  1.16 0.08 0  1.18 0.08 0  1.2 0.08 0  1.22 0.08 0  1.24 0.08 0  1.26 0.08 0  1.28 0.08 0  1.3 0.08 0  1.32 0.08 0  1.34 0.08 0  1.36 0.08 0  1.38 0.08 0  1.4 0.08 0  1.42 0.08 0  1.44 0.08 0  1.46 0.08 0  1.48 0.08 0  1.5 0.08 0  1.52 0.08 0  1.54 0.08 0  1.56 0.08 0  1.58 0.08 0  1.6 0.08 0  1.62 0.08 0  1.64 0.08 0  1.66 0.08 0  1.68 0.08 0  1.7 0.08 0  1.72 0.08 0  1.74 0.08 0  1.76 0.08 0  1.78 0.08 0  1.8 0.08 0  1.82 0.08 0  1.84 0.08 0  1.86 0.08 0  1.88 0.08 0  1.9 0.08 0  1.92 0.08 0  1.94 0.08 0  1.96 0.08 0  1.98 0.08 0  2 0.08 0  0 0.1 0  0.02 0.1 0  0.04 0.1 0  0.06 0.1 0  0.08 0.1 0  0.1 0.1 0  0.12 0.1 0  0.14 0.1 0  0.16 0.1 0  0.18 0.1 0  0.2 0.1 0  0.22 0.1 0  0.24 0.1 0  0.26 0.1 0  0.28 0.1 0  0.3 0.1 0  0.32 0.1 0  0.34 0.1 0  0.36 0.1 0  0.38 0.1 0  0.4 0.1 0  0.42 0.1 0  0.44 0.1 0  0.46 0.1 0  0.48 0.1 0  0.5 0.1 0  0.52 0.1 0  0.54 0.1 0  0.5600000000000001 0.1 0  0.58 0.1 0  0.6 0.1 0  0.62 0.1 0  0.64 0.1 0  0.66 0.1 0  0.68 0.1 0  0.7 0.1 0  0.72 0.1 0  0.74 0.1 0  0.76 0.1 0  0.78 0.1 0  0.8 0.1 0  0.82 0.1 0  0.84 0.1 0  0.86 0.1 0  0.88 0.1 0  0.9 0.1 0  0.92 0.1 0  0.9399999999999999 0.1 0  0.96 0.1 0  0.98 0.1 0  1 0.1 0  1.02 0.1 0  1.04 0.1 0  1.06 0.1 0  1.08 0.1 0  1.1 0.1 0  1.12 0.1 0  1.14 0.1 0  1.16 0.1 0  1.18 0.1 0  1.2 0.1 0  1.22 0.1 0  1.24 0.1 0  1.26 0.1 0  1.28 0.1 0  1.3 0.1 0  1.32 0.1 0  1.34 0.1 0  1.36 0.1 0  1.38 0.1 0  1.4 0.1 0  1.42 0.1 0  1.44 0.1 0  1.46 0.1 0  1.48 0.1 0  1.5 0.1 0  1.52 0.1 0  1.54 0.1 0  1.56 0.1 0  1.58 0.1 0  1.6 0.1 0  1.62 0.1 0  1.64 0.1 0  1.66 0.1 0  1.68 0.1 0  1.7 0.1 0  1.72 0.1 0  1.74 0.1 0  1.76 0.1 0  1.78 0.1 0  1.8 0.1 0  1.82 0.1 0  1.84 0.1 0  1.86 0.1 0  1.88 0.1 0  1.9 0.1 0  1.92 0.1 0  1.94 0.1 0  1.96 0.1 0  1.98 0.1 0  2 0.1 0  0 0.12 0  0.02 0.12 0  0.04 0.12 0  0.06 0.12 0  0.08 0.12 0  0.1 0.12 0  0.12 0.12 0  0.14 0.12 0  0.16 0.12 0  0.18 0.12 0  0.2 0.12 0  0.22 0.12 0  0.24 0.12 0  0.26 0.12 0  0.28 0.12 0  0.3 0.12 0  0.32 0.12 0  0.34 0.12 0  0.36 0.12 0  0.38 0.12 0  0.4 0.12 0  0.42 0.12 0  0.44 0.12 0  0.46 0.12 0  0.48 0.12 0  0.5 0.12 0  0.52 0.12 0  0.54 0.12 0  0.5600000000000001 0.12 0  0.58 0.12 0  0.6 0.12 0  0.62 0.12 0  0.64 0.12 0  0.66 0.12 0  0.68 0.12 0  0.7 0.12 0  0.72 0.12 0  0.74 0.12 0  0.76 0.12 0  0.78 0.12 0  0.8 0.12 0  0.82 0.12 0  0.84 0.12 0  0.86 0.12 0  0.88 0.12 0  0.9 0.12 0  0.92 0.12 0  0.9399999999999999 0.12 0  0.96 0.12 0  0.98 0.12 0  1 0.12 0  1.02 0.12 0  1.04 0.12 0  1.06 0.12 0  1.08 0.12 0  1.1 0.12 0  1.12 0.12 0  1.14 0.12 0  1.16 0.12 0  1.18 0.12 0  1.2 0.12 0  1.22 0.12 0  1.24 0.12 0  1.26 0.12 0  1.28 0.12 0  1.3 0.12 0  1.32 0.12 0  1.34 0.12 0  1.36 0.12 0  1.38 0.12 0  1.4 0.12 0  1.42 0.12 0  1.44 0.12 0  1.46 0.12 0  1.48 0.12 0  1.5 0.12 0  1.52 0.12 0  1.54 0.12 0  1.56 0.12 0  1.58 0.12 0  1.6 0.12 0  1.62 0.12 0  1.64 0.12 0  1.66 0.12 0  1.68 0.12 0  1.7 0.12 0  1.72 0.12 0  1.74 0.12 0  1.76 0.12 0  1.78 0.12 0  1.8 0.12 0  1.82 0.12 0  1.84 0.12 0  1.86 0.12 0  1.88 0.12 0  1.9 0.12 0  1.92 0.12 0  1.94 0.12 0  1.96 0.12 0  1.98 0.12 0  2 0.12 0  0 0.14 0  0.02 0.14 0  0.04 0.14 0  0.06 0.14 0  0.08 0.14 0  0.1 0.14 0  0.12 0.14 0  0.14 0.14 0  0.16 0.14 0  0.18 0.14 0  0.2 0.14 0  0.22 0.14 0  0.24 0.14 0  0.26 0.14 0  0.28 0.14 0  0.3 0.14 0  0.32 0.14 0  0.34 0.14 0  0.36 0.14 0  0.38 0.14 0  0.4 0.14 0  0.42 0.14 0  0.44 0.14 0  0.46 0.14 0  0.48 0.14 0  0.5 0.14 0  0.52 0.14 0  0.54 0.14 0  0.5600000000000001 0.14 0  0.58 0.14 0  0.6 0.14 0  0.62 0.14 0  0.64 0.14 0  0.66 0.14 0  0.68 0.14 0  0.7 0.14 0  0.72 0.14 0  0.74 0.14 0  0.76 0.14 0  0.78 0.14 0  0.8 0.14 0  0.82 0.14 0  0.84 0.14 0  0.86 0.14 0  0.88 0.14 0  0.9 0.14 0  0.92 0.14 0  0.9399999999999999 0.14 0  0.96 0.14 0  0.98 0.14 0  1 0.14 0  1.02 0.14 0  1.04 0.14 0  1.06 0.14 0  1.08 0.14 0  1.1 0.14 0  1.12 0.14 0  1.14 0.14 0  1.16 0.14 0  1.18 0.14 0  1.2 0.14 0  1.22 0.14 0  1.24 0.14 0  1.26 0.14 0  1.28 0.14 0  1.3 0.14 0  1.32 0.14 0  1.34 0.14 0  1.36 0.14 0  1.38 0.14 0  1.4 0.14 0  1.42 0.14 0  1.44 0.14 0  1.46 0.14 0  1.48 0.14 0  1
[...]
<PointData  Scalars="sols[i]"> 
<DataArray  type="Float64"  Name="sols[i]"  format="ascii">6.6093946264335623e-02  4.3756374386903038e-02  4.3756373268809615e-02  4.3756371179764254e-02  4.3756367588717184e-02  4.3756361601403004e-02  4.3756351770917565e-02  4.3756335890133724e-02  4.3756310777023216e-02  4.3756272049485651e-02  4.3756213886783780e-02  4.3756128781693437e-02  4.3756007296028562e-02  4.3755837840175962e-02  4.3755606503566316e-02  4.3755296966680679e-02  4.3754890525370231e-02  4.3754366254197104e-02  4.3753701326810057e-02  4.3752871498235243e-02  4.3751851737325376e-02  4.3750616979240743e-02  4.3749142950158998e-02  4.3747407002269548e-02  4.3745388889227861e-02  4.3743071412775822e-02  4.3740440881098963e-02  4.3737487338219166e-02  4.3734204549236343e-02  4.3730589755169039e-02  4.3726643239336699e-02  4.3722367770461450e-02  4.3717768002486924e-02  4.3712849915420474e-02  4.3707620375053505e-02  4.3702086873662505e-02  4.3696257491537049e-02  4.3690141093794058e-02  4.3683747751731054e-02  4.3677089355585896e-02  4.3670180368257289e-02  4.3663038657773538e-02  4.3655686341392289e-02  4.3648150575861251e-02  4.3640464236405406e-02  4.3632666440850121e-02  4.3624802893653850e-02  4.3616926045497439e-02  4.3609095084576513e-02  4.3601375792232284e-02  4.3593840304141381e-02  4.3586566815490890e-02  4.3579639252354779e-02  4.3573146902101741e-02  4.3567183956114447e-02  4.3561848874016526e-02  4.3557243437446103e-02  4.3553471331376277e-02  4.3550636080193862e-02  4.3548838183512281e-02  4.3548171354670109e-02  4.3548717872300580e-02  4.3550543208735699e-02  4.3553690288358024e-02  4.3558173926281862e-02  4.3563976139718560e-02  4.3571043040527918e-02  4.3579283882407428e-02  4.3588572580490363e-02  4.3598751706044506e-02  4.3609638650055675e-02  4.3621033401133422e-02  4.3632727231912485e-02  4.3644511548498036e-02  4.3656186220455181e-02  4.3667566845695366e-02  4.3678490577714224e-02  4.3688820317628899e-02  4.3698447227371290e-02  4.3707291643200037e-02  4.3715302559866324e-02  4.3722455918972225e-02  4.3728751973907132e-02  4.3734212020011959e-02  4.3738874772691755e-02  4.3742792648937698e-02  4.3746028161931239e-02  4.3748650579677584e-02  4.3750732934659017e-02  4.3752349410914410e-02  4.3753573085906487e-02  4.3754473973912369e-02  4.3755117310703369e-02  4.3755562039196644e-02  4.3755859502684347e-02  4.3756052420363109e-02  4.3756174291656125e-02  4.3756249411829283e-02  4.3756293615554456e-02  4.3756315696565587e-02  1.3742065558486688e-01  4.3756374446463936e-02  2.2067210229192231e-02  2.2067209357888695e-02  2.2067207607533012e-02  2.2067204501079046e-02  2.2067199309696500e-02  2.2067190958162244e-02  2.2067177903617168e-02  2.2067158011204801e-02  2.2067128433313907e-02  2.2067085492406852e-02  2.2067024567950708e-02  2.2066939991223323e-02  2.2066824955473591e-02  2.2066671452034923e-02  2.2066470244969723e-02  2.2066210897273255e-02  2.2065881860294300e-02  2.2065470634682331e-02  2.2064964005890909e-02  2.2064348350378217e-02  2.2063610000801544e-02  2.2062735650644032e-02  2.2061712771975339e-02  2.2060530015595006e-02  2.2059177561649289e-02  2.2057647391511219e-02  2.2055933458325065e-02  2.2054031743567699e-02  2.2051940199068577e-02  2.2049658586564047e-02  2.2047188238255262e-02  2.2044531770360570e-02  2.2041692786120056e-02  2.2038675604641501e-02  2.2035485047674087e-02  2.2032126308829284e-02  2.2028604920315772e-02  2.2024926822417159e-02  2.2021098532006029e-02  2.2017127399495393e-02  2.2013021939071124e-02  2.2008792215172421e-02  2.2004450268836774e-02  2.2000010569864548e-02  2.1995490484209981e-02  2.1990910749376764e-02  2.1986295952662611e-02  2.1981675006534990e-02  2.1977081611033310e-02  2.1972554684097301e-02  2.1968138727082292e-02  2.1963884075474810e-02  2.1959846966276664e-02  2.1956089337148838e-02  2.1952678262406523e-02  2.1949684931515466e-02  2.1947183090184001e-02  2.1945246894282611e-02  2.1943948172919787e-02  2.1943353157970490e-02  2.1943518810371314e-02  2.1944488952256619e-02  2.1946290494427478e-02  2.1948930122515274e-02  2.1952391845450211e-02  2.1956635781089535e-02  2.1961598443164875e-02  2.1967194620551061e-02  2.1973320742360889e-02  2.1979859441081735e-02  2.1986684893293730e-02  2.1993668453167987e-02  2.2000684103035299e-02  2.2007613317893405e-02  2.2014349054854814e-02  2.2020798707331819e-02  2.2026885983471828e-02  2.2032551763800680e-02  2.2037754058702966e-02  2.2042467224191550e-02  2.2046680610063353e-02  2.2050396814168229e-02  2.2053629704957139e-02  2.2056402354841902e-02  2.2058745001258408e-02  2.2060693122565627e-02  2.2062285684409304e-02  2.2063563581916457e-02  2.2064568277323754e-02  2.2065340614486114e-02  2.2065919783722732e-02  2.2066342414279141e-02  2.2066641787370320e-02  2.2066847187319875e-02  2.2066983433220097e-02  2.2067070642525135e-02  2.2067124250597130e-02  2.2067155255331108e-02  2.2067170790326513e-02  4.3756315783377318e-02  4.3756373522921534e-02  2.2067209465408143e-02  2.2067208211919924e-02  2.2067205606369229e-02  2.2067200975964232e-02  2.2067193376778527e-02  2.2067181563970889e-02  2.2067163921242416e-02  2.2067138366624904e-02  2.2067102252624732e-02  2.2067052270756834e-02  2.2066984366165509e-02  2.2066893667117542e-02  2.2066774434964458e-02  2.2066620041322239e-02  2.2066422979833567e-02  2.2066174919461529e-02  2.2065866804588566e-02  2.2065489004245070e-02  2.2065031508756092e-02  2.2064484167353852e-02  2.2063836955435821e-02  2.2063080255827941e-02  2.2062205135331282e-02  2.2061203596573101e-02  2.2060068786132304e-02  2.2058795143161836e-02  2.2057378478043951e-02  2.2055815977472058e-02  2.2054106139945667e-02  2.2052248653061091e-02  2.2050244230203509e-02  2.2048094428453603e-02  2.2045801471157353e-02  2.2043368097534509e-02  2.2040797458228557e-02  2.2038093070475603e-02  2.2035258840417963e-02  2.2032299153877236e-02  2.2029219031379083e-02  2.2026024339012785e-02  2.2022722044071345e-02  2.2019320503509424e-02  2.2015829774104982e-02  2.2012261935057259e-02  2.2008631416354136e-02  2.2004955328565206e-02  2.2001253790863536e-02  2.1997550253083205e-02  2.1993871803696993e-02  2.1990249448408147e-02  2.1986718333927284e-02  2.1983317879635901e-02  2.1980091768240301e-02  2.1977087737735709e-02  2.1974357113540743e-02  2.1971954023350875e-02  2.1969934248755280e-02  2.1968353686504336e-02  2.1967266417977645e-02  2.1966722418350119e-02  2.1966764978147452e-02  2.1967427957855969e-02  2.1968733056064504e-02  2.1970687341475826e-02  2.1973281349053655e-02  2.1976488031109281e-02  2.1980262775007284e-02  2.1984544571744907e-02  2.1989258275911746e-02  2.1994317766427528e-02  2.1999629720006457e-02  2.2005097658460683e-02  2.2010625931208963e-02  2.2016123340183640e-02  2.2021506191097957e-02  2.2026700643738392e-02  2.2031644317389017e-02  2.2036287174519196e-02  2.2040591752375500e-02  2.2044532839522374e-02  2.2048096706933099e-02  2.2051280005575116e-02  2.2054088438076509e-02  2.2056535303001428e-02  2.2058639997458197e-02  2.2060426547933921e-02  2.2061922221600368e-02  2.2063156252852611e-02  2.2064158705005030e-02  2.2064959477326281e-02  2.2065587464601390e-02  2.2066069880070868e-02  2.2066431759546406e-02  2.2066695665872826e-02  2.2066881592356393e-02  2.2067007000514956e-02  2.2067086817922694e-02  2.2067133168938075e-02  2.2067155263271639e-02  4.3756294096152490e-02  4.3756371889978614e-02  2.2067207980571744e-02  2.2067205906429410e-02  2.2067201734662572e-02  2.2067194628114611e-02  2.2067183452219027e-02  2.2067166785398697e-02  2.2067142900777603e-02  2.2067109708594834e-02  2.2067064682106043e-02  2.2067004785975036e-02  2.2066926418830197e-02  2.2066825376957495e-02  2.2066696843876497e-02  2.2066535409482085e-02  2.2066335121453586e-02  2.2066089570134104e-02  2.2065792005869223e-02  2.2065435484982136e-02  2.2065013037473911e-02  2.2064517846650956e-02  2.2063943428739585e-02  2.2063283799624862e-02  2.2062533616419744e-02  2.2061688283665507e-02  2.2060744017347561e-02  2.2059697864147833e-02  2.2058547677893749e-02  2.2057292059435765e-02  2.2055930269709728e-02  2.2054462128176629e-02  2.2052887909960215e-02  2.2051208254746317e-02  2.2049424098961084e-02  2.2047536640197062e-02  2.2045547339718072e-02  2.2043457965551426e-02  2.2041270675501042e-02  2.2038988136641086e-02  2.2036613675668722e-02  2.2034151453078347e-02  2.2031606653578388e-02  2.2028985685529121e-02  2.2026296383520876e-02  2.2023548210010204e-02  2.2020752453969155e-02  2.2017922426060342e-02  2.2015073650209393e-02  2.2012224049952945e-02  2.2009394124163213e-02  2.2006607100752661e-02  2.2003889049464372e-02  2.2001268927265026e-02  2.1998778524074426e-02  2.1996452274429135e-02  2.1994326903250538e-02  2.1992440880810961e-02  2.1990833671257256e-02  2.1989544767664817e-02  2.1988612512834169e-02  2.1988072710562925e-02  2.1987957041589883e-02  2.1988291314843988e-02  2.1989093627461674e-02  2.1990372584577183e-02  2.1992125801975577e-02  2.1994338927337390e-02  2.1996985360295748e-02  2.2000026756602061e-02  2.2003414297995960e-02  2.2007090617251479e-02  2.2010992198303936e-02  2.2015052031258107e-02  2.2019202295865199e-02  2.2023376873289115e-02  2.2027513535393436e-02  2.2031555719317988e-02  2.2035453849542863e-02  2.2039166211577876e-02  2.2042659408404355e-02  2.2045908444985624e-02  2.2048896491978998e-02  2.2051614381636248e-02  2.2054059889681912e-02  2.2056236857655058e-02  2.2058154210236571e-02  2.2059824920420294e-02  2.2061264971596186e-02  2.2062492360473251e-02  2.2063526179992313e-02  2.2064385818790094e-02  2.2065090314082051e-02  2.2065657896110025e-02  2.2066105758031446e-02  2.2066450061988308e-02  2.2066706129179523e-02  2.2066888637602547e-02  2.2067011475386970e-02  2.2067086838423337e-02  2.2067124272875712e-02  4.3756250812607769e-02  4.3756369275176829e-02  2.2067205468062567e-02  2.2067202008800059e-02  2.2067195498381775e-02  2.2067185006490138e-02  2.2067169259901272e-02  2.2067146678556134e-02  2.2067115403141838e-02  2.2067073272743362e-02  2.2067017776956747e-02  2.2066946007725640e-02  2.2066854627617680e-02  2.2066739864055693e-02  2.2066597534376751e-02  2.2066423103518102e-02  2.2066211773545067e-02  2.2065958601521600e-02  2.2065658639233467e-02  2.2065307085241632e-02  2.2064899437144483e-02  2.2064431630367389e-02  2.2063900149877934e-02  2.2063302103283392e-02  2.2062635247730566e-02  2.2061897968411844e-02  2.2061089212457682e-02  2.2060208387584841e-02  2.2059255239160944e-02  2.2058229721657042e-02  2.2057131880536127e-02  2.2055961758651228e-02  2.2054719337647698e-02  2.2053404520314315e-02  2.2052017155065311e-02  2.2050557099543178e-02  2.2049024317291454e-02  2.2047418999759198e-02  2.2045741705395173e-02  2.2043993507922535e-02  2.2042176146704881e-02  2.2040292173225024e-02  2.2038345089045442e-02  2.2036339472232696e-02  2.2034281091134478e-02  2.2032177006382742e-02  2.2030035663797579e-02  2.2027866981951937e-02  2.2025682437969350e-02  2.2023495153183498e-02  2.2021319976386847e-02  2.2019173556895231e-02  2.2017074393577179e-02  2.2015042841000875e-02  2.2013101051875313e-02  2.2011272837487127e-02  2.2009583434966441e-02  2.2008059179987511e-02  2.2006727091721457e-02  2.2005614378102858e-02  2.2004747860395274e-02  2.2004153298276565e-02  2.2003854577096735e-02  2.2003872703100398e-02  2.2004224583420006e-02  2.2004921669348004e-02  2.2005968649767137e-02  2.2007362414260934e-02  2.2009091459196523e-02  2.2011135830776157e-02  2.2013467619492133e-02  2.2016051953591874e-02  2.2018848386633816e-02  2.2021812538069018e-02  2.2024897832483466e-02  2.2028057196376263e-02  2.2031244605688415e-02  2.2034416420061646e-02  2.2037532477866210e-02  2.2040556951226146e-02  2.2043458971057597e-02  2.2046213032320607e-02  2.2048799185642370e-02  2.2051203019217716e-02  2.2053415437988996e-02  2.2055432255865516e-02  2.2057253628745634e-02  2.2058883367795667e-02  2.2060328181114672e-02  2.2061596896930987e-02  2.2062699723986851e-02  2.2063647606356773e-02  2.2064451730745085e-02  2.2065123241036783e-02  2.2065673198962219e-02  2.2066112785877823e-02  2.2066453647114487e-02  2.2066708116065040e-02  2.2066888827919701e-02  2.2067007105894234e-02  2.2067070688565768e-02  4.3756177607376739e-02  4.3756365260116274e-02  2.2067201523132445e-02  2.2067196021229120e-02  2.2067186369600617e-02  2.2067171635492641e-02  2.2067150457762023e-02  2.2067121119922494e-02  2.2067081619120844e-02  2.2067029675361453e-02  2.2066962708736666e-02  2.2066877814230952e-02  2.2066771754480363e-02  2.2066640982384495e-02  2.2066481699200211e-02  2.2066289948994240e-02  2.2066061746178499e-02  2.2065793228765583e-02  2.2065480825915619e-02  2.2065121424686193e-02  2.2064712518313521e-02  2.2064252317658153e-02  2.2063739809418857e-02  2.2063174749627882e-02  2.2062557588374210e-02  2.2061889330634195e-02  2.2061171347045497e-02  2.2060405155847618e-02  2.2059592201661281e-02  2.2058733657402563e-02  2.2057830272363559e-02  2.2056882283056932e-02  2.2055889394943708e-02  2.2054850834027782e-02  2.2053765459068592e-02  2.2052631919263127e-02  2.2051448839483581e-02  2.2050215015425496e-02  2.2048929603494187e-02  2.2047592293841765e-02  2.2046203458740744e-02  2.2044764271924165e-02  2.2043276797519447e-02  2.2041744049842063e-02  2.2040170027735499e-02  2.2038559729287328e-02  2.2036919154459704e-02  2.2035255303941570e-02  2.2033576181931219e-02  2.2031890808177999e-02  2.2030209240357666e-02  2.2028542602255022e-02  2.2026903107517714e-02  2.2025304064829169e-02  2.2023759850361035e-02  2.2022285838777293e-02  2.2020898294547977e-02  2.2019614237983810e-02  2.2018451309475412e-02  2.2017427653383922e-02  2.2016561824091452e-02  2.2015872679536929e-02  2.2015379177785691e-02  2.2015099933811521e-02  2.2015052414208317e-02  2.2015251797179614e-02  2.2015709689278070e-02  2.2016432936156554e-02  2.2017422708138074e-02  2.2018673963850040e-02  2.2020175331455082e-02  2.2021909399615618e-02  2.2023853368278230e-02  2.2025979969792945e-02  2.2028258546211963e-02  2.2030656171455890e-02  2.2033138735758840e-02  2.2035671949631415e-02  2.2038222258151323e-02  2.2040757672672627e-02  2.2043248524371208e-02  2.2045668128656586e-02  2.2047993331677125e-02  2.2050204899712936e-02  2.2052287714955401e-02  2.2054230757196862e-02  2.2056026875382093e-02  2.2057672378453564e-02  2.2059166495392159e-02  2.2060510767464216e-02  2.2061708442492646e-02  2.2062763943614710e-02  2.2063682483774393e-02  2.2064469888199292e-02  2.2065132660817305e-02  2.2065678271970271e-02  2.2066115534150450e-02  2.2066454748526226e-02  2.2066707036140467e-02  2.2066881994705113e-02  2.2066983533236974e-02  4.3756059484595315e-02  4.3756359217712683e-02  2.2067195630285537e-02  2.2067187433459933e-02  2.2067173878556265e-02  2.2067154130287474e-02  2.2067126788847414e-02  2.2067090027282577e-02  2.2067041698899687e-02  2.2066979373800668e-02  2.2066900339620388e-02  2.2066801599144981e-02  2.2066679887529472e-02  2.2066531723002308e-02  2.2066353497800274e-02  2.2066141609992533e-02  2.2065892631150413e-02  2.2065603499158652e-02  2.2065271719948033e-02  2.2064895557170758e-02  2.2064474185772950e-02  2.2064007785197636e-02  2.2063497551718186e-02  2.2062945617412871e-02  2.2062354874711133e-02  2.2061728718602097e-02  2.2061070731228743e-02  2.2060384343345528e-02  2.2059672511992524e-02  2.2058937452524005e-02  2.2058180455986662e-02  2.2057401811165871e-02  2.2056600836316085e-02  2.2055776010975092e-02  2.2054925186016337e-02  2.2054045842573297e-02  2.2053135368701474e-02  2.2052191325932918e-02  2.2051211684329396e-02  2.2050195012128505e-02  2.2049140613011470e-02  2.2048048609656635e-02  2.2046919976552837e-02  2.2045756528361403e-02  2.2044560872784752e-02  2.2043336339055794e-02  2.2042086894766225e-02  2.2040817064243962e-02  2.2039531860741746e-02  2.2038236741868156e-02  2.2036937592877410e-02  2.2035640736241997e-02  2.2034352959693929e-02  2.2033081550750924e-02  2.2031834326097437e-02  2.2030619650861186e-02  2.2029446455621937e-02  2.2028324274875045e-02  2.2027263343372412e-02  2.2026274787648334e-02  2.2025370929580606e-02  2.2024565665949170e-02  2.2023874799343590e-02  2.2023316066336816e-02  2.2022908615640428e-02  2.2022671929378446e-02  2.2022624432951703e-02  2.2022782082019129e-02  2.2023157118497151e-02  2.2023757101392732e-02  2.2024584270989665e-02  2.2025635279757282e-02  2.2026901288880220e-02  2.2028368376048820e-02  2.2030018154226502e-02  2.2031828492318307e-02  2.2033774260364885e-02  2.2035828072360434e-02  2.2037961041376987e-02  2.2040143576455846e-02  2.2042346235692720e-02  2.2044540615034500e-02  2.2046700214538015e-02  2.2048801199769114e-02  2.2050822975691661e-02  2.2052748514382544e-02  2.2054564417507437e-02  2.2056260736234030e-02  2.2057830603907001e-02  2.2059269756006961e-02  2.2060576019654343e-02  2.2061748855366065e-02  2.2062789028555008e-02  2.2063698473417208e-02  2.2064480377415544e-02  2.2065139447397002e-02  2.2065682203137729e-02  2.2066116959477404e-02  2.2066452862813585e-02  2.2066696889383022e-02  2.2066847443506545e-02  4.3755873557233982e-02  4.3756350279879050e-02  2.2067187149176479e-02  2.2067175737983991e-02  2.2067157663151322e-02  2.2067132280412495e-02  2.2067098201960091e-02  2.2067053522469834e-02  2.2066995961176991e-02  2.2066922921559283e-02  2.2066831513971475e-02  2.2066718576103352e-02  2.2066580715317745e-02  2.2066414388409793e-02  2.2066216026895742e-02  2.2065982208806172e-02  2.2065709870696251e-02  2.2065396546091662e-02  2.2065040609154516e-02  2.2064641495911648e-02  2.2064199871249558e-02  2.2063717709742629e-02  2.2063198264095189e-02  2.2062645906759847e-02  2.2062065846695997e-02  2.2061463741753544e-02  2.2060845244520681e-02  2.2060215532331125e-02  2.2059578877567130e-02  2.2058938310708175e-02  2.2058295416308507e-02  2.2057650283607635e-02  2.2057001611628858e-02  2.2056346946958807e-02  2.2055683015336541e-02  2.2055006099459196e-02  2.2054312416161310e-02  2.2053598454427944e-02  2.2052861247868635e-02  2.2052098567700247e-02  2.2051309032639566e-02  2.2050492139629480e-02  2.2049648224381341e-02  2.2048778364136944e-02  2.2047884237552155e-02  2.2046967958532834e-02  2.2046031902317777e-02  2.2045078542339877e-02  2.2044110315199594e-02  2.2043129527836207e-02  2.2042138315488936e-02  2.2041138651899946e-02  2.2040132405702035e-02  2.2039121431255301e-02  2.2038107681110117e-02  2.2037093333157187e-02  2.2036080938965648e-02  2.2035073618806765e-02  2.2034075348710321e-02  2.2033091399327093e-02  2.2032128980338753e-02  2.2031198081330992e-02  2.2030312350783177e-02  2.2029489590265964e-02  2.2028751427203206e-02  2.2028122148435181e-02  2.2027627074186696e-02  2.2027290852886697e-02  2.2027135868096785e-02  2.2027180850642085e-02  2.2027439769436840e-02  2.2027921084006617e-02  2.2028627413750897e-02  2.2029555594017841e-02  2.2030697002889819e-02  2.2032038018009552e-02  2.2033560509427261e-02  2.2035242354493660e-02  2.2037058026491932e-02  2.2038979329778590e-02  2.2040976325363552e-02  2.2043018428230369e-02  2.2045075589570827e-02  2.2047119431340013e-02  2.2049124194402300e-02  2.2051067396518978e-02  2.2052930157486834e-02  2.2054697212075428e-02  2.2056356677595455e-02  2.2057899665487268e-02  2.2059319830352198e-02  2.2060612944168521e-02  2.2061776572681269e-02  2.2062809911265260e-02  2.2063713797682717e-02  2.2064490848537715e-02  2.2065145556664414e-02  2.2065684020459980e-02  2.2066112686416405e-02  2.2066434894368513e-02  2.2066642484005791e-02  4.3755588570945241e-02  4.3756337343131183e-02  2.2067175324371493e-02  2.2067160427249165e-02  2.2067137465282775e-02  2.2067106054274047e-02  2.2067064871149948e-02  2.2067011971345789e-02  2.2066944958349422e-02  2.2066861062851204e-02  2.2066757186116712e-02  2.2066629943436330e-02  2.2066475732456289e-02  2.2066290843537537e-02  2.2066071621951816e-02  2.2065814683703940e-02  2.2065517177881168e-02  2.2065177078781702e-02  2.2064793481103382e-02  2.2064366862588853e-02  2.2063899272529178e-02  2.2063394403984735e-02  2.20628575156