<?xml version="1.0"?>
<VTKFile type="UnstructuredGrid"  version="0.1"  >
<UnstructuredGrid>
<Piece  NumberOfPoints="5151" NumberOfCells="10000">
<Points>
<DataArray  type="Float64"  NumberOfComponents="3"  format="ascii">0 0 0  0.02 0 0  0.04 0 0  0.06 0 0  0.08 0 0  0.1 0 0  0.12 0 0  0.14 0 0  0.16 0 0  0.18 0 0  0.2 0 0  0.22 0 0  0.24 0 0  0.26 0 0  0.28 0 0  0.3 0 0  0.32 0 0  0.34 0 0  0.36 0 0  0.38 0 0  0.4 0 0  0.42 0 0  0.44 0 0  0.46 0 0  0.48 0 0  0.5 0 0  0.52 0 0  0.54 0 0  0.5600000000000001 0 0  0.58 0 0  0.6 0 0  0.62 0 0  0.64 0 0  0.66 0 0  0.68 0 0  0.7 0 0  0.72 0 0  0.74 0 0  0.76 0 0  0.78 0 0  0.8 0 0  0.82 0 0  0.84 0 0  0.86 0 0  0.88 0 0  0.9 0 0  0.92 0 0  0.9399999999999999 0 0  0.96 0 0  0.98 0 0  1 0 0  1.02 0 0  1.04 0 0  1.06 0 0  1.08 0 0  1.1 0 0  1.12 0 0  1.14 0 0  1.16 0 0  1.18 0 0  1.2 0 0  1.22 0 0  1.24 0 0  1.26 0 0  1.28 0 0  1.3 0 0  1.32 0 0  1.34 0 0  1.36 0 0  1.38 0 0  1.4 0 0  1.42 0 0  1.44 0 0  1.46 0 0  1.48 0 0  1.5 0 0  1.52 0 0  1.54 0 0  1.56 0 0  1.58 0 0  1.6 0 0  1.62 0 0  1.64 0 0  1.66 0 0  1.68 0 0  1.7 0 0  1.72 0 0  1.74 0 0  1.76 0 0  1.78 0 0  1.8 0 0  1.82 0 0  1.84 0 0  1.86 0 0  1.88 0 0  1.9 0 0  1.92 0 0  1.94 0 0  1.96 0 0  1.98 0 0  2 0 0  0 0.02 0  0.02 0.02 0  0.04 0.02 0  0.06 0.02 0  0.08 0.02 0  0.1 0.02 0  0.12 0.02 0  0.14 0.02 0  0.16 0.02 0  0.18 0.02 0  0.2 0.02 0  0.22 0.02 0  0.24 0.02 0  0.26 0.02 0  0.28 0.02 0  0.3 0.02 0  0.32 0.02 0  0.34 0.02 0  0.36 0.02 0  0.38 0.02 0  0.4 0.02 0  0.42 0.02 0  0.44 0.02 0  0.46 0.02 0  0.48 0.02 0  0.5 0.02 0  0.52 0.02 0  0.54 0.02 0  0.5600000000000001 0.02 0  0.58 0.02 0  0.6 0.02 0  0.62 0.02 0  0.64 0.02 0  0.66 0.02 0  0.68 0.02 0  0.7 0.02 0  0.72 0.02 0  0.74 0.02 0  0.76 0.02 0  0.78 0.02 0  0.8 0.02 0  0.82 0.02 0  0.84 0.02 0  0.86 0.02 0  0.88 0.02 0  0.9 0.02 0  0.92 0.02 0  0.9399999999999999 0.02 0  0.96 0.02 0  0.98 0.02 0  1 0.02 0  1.02 0.02 0  1.04 0.02 0  1.06 0.02 0  1.08 0.02 0  1.1 0.02 0  1.12 0.02 0  1.14 0.02 0  1.16 0.02 0  1.18 0.02 0  1.2 0.02 0  1.22 0.02 0  1.24 0.02 0  1.26 0.02 0  1.28 0.02 0  1.3 0.02 0  1.32 0.02 0  1.34 0.02 0  1.36 0.02 0  1.38 0.02 0  1.4 0.02 0  1.42 0.02 0  1.44 0.02 0  1.46 0.02 0  1.48 0.02 0  1.5 0.02 0  1.52 0.02 0  1.54 0.02 0  1.56 0.02 0  1.58 0.02 0  1.6 0.02 0  1.62 0.02 0  1.64 0.02 0  1.66 0.02 0  1.68 0.02 0  1.7 0.02 0  1.72 0.02 0  1.74 0.02 0  1.76 0.02 0  1.78 0.02 0  1.8 0.02 0  1.82 0.02 0  1.84 0.02 0  1.86 0.02 0  1.88 0.02 0  1.9 0.02 0  1.92 0.02 0  1.94 0.02 0  1.96 0.02 0  1.98 0.02 0  2 0.02 0  0 0.04 0  0.02 0.04 0  0.04 0.04 0  0.06 0.04 0  0.08 0.04 0  0.1 0.04 0  0.12 0.04 0  0.14 0.04 0  0.16 0.04 0  0.18 0.04 0  0.2 0.04 0  0.22 0.04 0  0.24 0.04 0  0.26 0.04 0  0.28 0.04 0  0.3 0.04 0  0.32 0.04 0  0.34 0.04 0  0.36 0.04 0  0.38 0.04 0  0.4 0.04 0  0.42 0.04 0  0.44 0.04 0  0.46 0.04 0  0.48 0.04 0  0.5 0.04 0  0.52 0.04 0  0.54 0.04 0  0.5600000000000001 0.04 0  0.58 0.04 0  0.6 0.04 0  0.62 0.04 0  0.64 0.04 0  0.66 0.04 0  0.68 0.04 0  0.7 0.04 0  0.72 0.04 0  0.74 0.04 0  0.76 0.04 0  0.78 0.04 0  0.8 0.04 0  0.82 0.04 0  0.84 0.04 0  0.86 0.04 0  0.88 0.04 0  0.9 0.04 0  0.92 0.04 0  0.9399999999999999 0.04 0  0.96 0.04 0  0.98 0.04 0  1 0.04 0  1.02 0.04 0  1.04 0.04 0  1.06 0.04 0  1.08 0.04 0  1.1 0.04 0  1.12 0.04 0  1.14 0.04 0  1.16 0.04 0  1.18 0.04 0  1.2 0.04 0  1.22 0.04 0  1.24 0.04 0  1.26 0.04 0  1.28 0.04 0  1.3 0.04 0  1.32 0.04 0  1.34 0.04 0  1.36 0.04 0  1.38 0.04 0  1.4 0.04 0  1.42 0.04 0  1.44 0.04 0  1.46 0.04 0  1.48 0.04 0  1.5 0.04 0  1.52 0.04 0  1.54 0.04 0  1.56 0.04 0  1.58 0.04 0  1.6 0.04 0  1.62 0.04 0  1.64 0.04 0  1.66 0.04 0  1.68 0.04 0  1.7 0.04 0  1.72 0.04 0  1.74 0.04 0  1.76 0.04 0  1.78 0.04 0  1.8 0.04 0  1.82 0.04 0  1.84 0.04 0  1.86 0.04 0  1.88 0.04 0  1.9 0.04 0  1.92 0.04 0  1.94 0.04 0  1.96 0.04 0  1.98 0.04 0  2 0.04 0  0 0.06 0  0.02 0.06 0  0.04 0.06 0  0.06 0.06 0  0.08 0.06 0  0.1 0.06 0  0.12 0.06 0  0.14 0.06 0  0.16 0.06 0  0.18 0.06 0  0.2 0.06 0  0.22 0.06 0  0.24 0.06 0  0.26 0.06 0  0.28 0.06 0  0.3 0.06 0  0.32 0.06 0  0.34 0.06 0  0.36 0.06 0  0.38 0.06 0  0.4 0.06 0  0.42 0.06 0  0.44 0.06 0  0.46 0.06 0  0.48 0.06 0  0.5 0.06 0  0.52 0.06 0  0.54 0.06 0  0.5600000000000001 0.06 0  0.58 0.06 0  0.6 0.06 0  0.62 0.06 0  0.64 0.06 0  0.66 0.06 0  0.68 0.06 0  0.7 0.06 0  0.72 0.06 0  0.74 0.06 0  0.76 0.06 0  0.78 0.06 0  0.8 0.06 0  0.82 0.06 0  0.84 0.06 0  0.86 0.06 0  0.88 0.06 0  0.9 0.06 0  0.92 0.06 0  0.9399999999999999 0.06 0  0.96 0.06 0  0.98 0.06 0  1 0.06 0  1.02 0.06 0  1.04 0.06 0  1.06 0.06 0  1.08 0.06 0  1.1 0.06 0  1.12 0.06 0  1.14 0.06 0  1.16 0.06 0  1.18 0.06 0  1.2 0.06 0  1.22 0.06 0  1.24 0.06 0  1.26 0.06 0  1.28 0.06 0  1.3 0.06 0  1.32 0.06 0  1.34 0.06 0  1.36 0.06 0  1.38 0.06 0  1.4 0.06 0  1.42 0.06 0  1.44 0.06 0  1.46 0.06 0  1.48 0.06 0  1.5 0.06 0  1.52 0.06 0  1.54 0.06 0  1.56 0.06 0  1.58 0.06 0  1.6 0.06 0  1.62 0.06 0  1.64 0.06 0  1.66 0.06 0  1.68 0.06 0  1.7 0.06 0  1.72 0.06 0  1.74 0.06 0  1.76 0.06 0  1.78 0.06 0  1.8 0.06 0  1.82 0.06 0  1.84 0.06 0  1.86 0.06 0  1.88 0.06 0  1.9 0.06 0  1.92 0.06 0  1.94 0.06 0  1.96 0.06 0  1.98 0.06 0  2 0.06 0  0 0.08 0  0.02 0.08 0  0.04 0.08 0  0.06 0.08 0  0.08 0.08 0  0.1 0.08 0  0.12 0.08 0  0.14 0.08 0  0.16 0.08 0  0.18 0.08 0  0.2 0.08 0  0.22 0.08 0  0.24 0.08 0  0.26 0.08 0  0.28 0.08 0  0.3 0.08 0  0.32 0.08 0  0.34 0.08 0  0.36 0.08 0  0.38 0.08 0  0.4 0.08 0  0.42 0.08 0  0.44 0.08 0  0.46 0.08 0  0.48 0.08 0  0.5 0.08 0  0.52 0.08 0  0.54 0.08 0  0.5600000000000001 0.08 0  0.58 0.08 0  0.6 0.08 0  0.62 0.08 0  0.64 0.08 0  0.66 0.08 0  0.68 0.08 0  0.7 0.08 0  0.72 0.08 0  0.74 0.08 0  0.76 0.08 0  0.78 0.08 0  0.8 0.08 0  0.82 0.08 0  0.84 0.08 0  0.86 0.08 0  0.88 0.08 0  0.9 0.08 0  0.92 0.08 0  0.9399999999999999 0.08 0  0.96 0.08 0  0.98 0.08 0  1 0.08 0  1.02 0.08 0  1.04 0.08 0  1.06 0.08 0  1.08 0.08 0  1.1 0.08 0  1.12 0.08 0  1.14 0.08 0  1.16 0.08 0  1.18 0.08 0  1.2 0.08 0  1.22 0.08 0  1.24 0.08 0  1.26 0.08 0  1.28 0.08 0  1.3 0.08 0  1.32 0.08 0  1.34 0.08 0  1.36 0.08 0  1.38 0.08 0  1.4 0.08 0  1.42 0.08 0  1.44 0.08 0  1.46 0.08 0  1.48 0.08 0  1.5 0.08 0  1.52 0.08 0  1.54 0.08 0  1.56 0.08 0  1.58 0.08 0  1.6 0.08 0  1.62 0.08 0  1.64 0.08 0  1.66 0.08 0  1.68 0.08 0  1.7 0.08 0  1.72 0.08 0  1.74 0.08 0  1.76 0.08 0  1.78 0.08 0  1.8 0.08 0  1.82 0.08 0  1.84 0.08 0  1.86 0.08 0  1.88 0.08 0  1.9 0.08 0  1.92 0.08 0  1.94 0.08 0  1.96 0.08 0  1.98 0.08 0  2 0.08 0  0 0.1 0  0.02 0.1 0  0.04 0.1 0  0.06 0.1 0  0.08 0.1 0  0.1 0.1 0  0.12 0.1 0  0.14 0.1 0  0.16 0.1 0  0.18 0.1 0  0.2 0.1 0  0.22 0.1 0  0.24 0.1 0  0.26 0.1 0  0.28 0.1 0  0.3 0.1 0  0.32 0.1 0  0.34 0.1 0  0.36 0.1 0  0.38 0.1 0  0.4 0.1 0  0.42 0.1 0  0.44 0.1 0  0.46 0.1 0  0.48 0.1 0  0.5 0.1 0  0.52 0.1 0  0.54 0.1 0  0.5600000000000001 0.1 0  0.58 0.1 0  0.6 0.1 0  0.62 0.1 0  0.64 0.1 0  0.66 0.1 0  0.68 0.1 0  0.7 0.1 0  0.72 0.1 0  0.74 0.1 0  0.76 0.1 0  0.78 0.1 0  0.8 0.1 0  0.82 0.1 0  0.84 0.1 0  0.86 0.1 0  0.88 0.1 0  0.9 0.1 0  0.92 0.1 0  0.9399999999999999 0.1 0  0.96 0.1 0  0.98 0.1 0  1 0.1 0  1.02 0.1 0  1.04 0.1 0  1.06 0.1 0  1.08 0.1 0  1.1 0.1 0  1.12 0.1 0  1.14 0.1 0  1.16 0.1 0  1.18 0.1 0  1.2 0.1 0  1.22 0.1 0  1.24 0.1 0  1.26 0.1 0  1.28 0.1 0  1.3 0.1 0  1.32 0.1 0  1.34 0.1 0  1.36 0.1 0  1.38 0.1 0  1.4 0.1 0  1.42 0.1 0  1.44 0.1 0  1.46 0.1 0  1.48 0.1 0  1.5 0.1 0  1.52 0.1 0  1.54 0.1 0  1.56 0.1 0  1.58 0.1 0  1.6 0.1 0  1.62 0.1 0  1.64 0.1 0  1.66 0.1 0  1.68 0.1 0  1.7 0.1 0  1.72 0.1 0  1.74 0.1 0  1.76 0.1 0  1.78 0.1 0  1.8 0.1 0  1.82 0.1 0  1.84 0.1 0  1.86 0.1 0  1.88 0.1 0  1.9 0.1 0  1.92 0.1 0  1.94 0.1 0  1.96 0.1 0  1.98 0.1 0  2 0.1 0  0 0.12 0  0.02 0.12 0  0.04 0.12 0  0.06 0.12 0  0.08 0.12 0  0.1 0.12 0  0.12 0.12 0  0.14 0.12 0  0.16 0.12 0  0.18 0.12 0  0.2 0.12 0  0.22 0.12 0  0.24 0.12 0  0.26 0.12 0  0.28 0.12 0  0.3 0.12 0  0.32 0.12 0  0.34 0.12 0  0.36 0.12 0  0.38 0.12 0  0.4 0.12 0  0.42 0.12 0  0.44 0.12 0  0.46 0.12 0  0.48 0.12 0  0.5 0.12 0  0.52 0.12 0  0.54 0.12 0  0.5600000000000001 0.12 0  0.58 0.12 0  0.6 0.12 0  0.62 0.12 0  0.64 0.12 0  0.66 0.12 0  0.68 0.12 0  0.7 0.12 0  0.72 0.12 0  0.74 0.12 0  0.76 0.12 0  0.78 0.12 0  0.8 0.12 0  0.82 0.12 0  0.84 0.12 0  0.86 0.12 0  0.88 0.12 0  0.9 0.12 0  0.92 0.12 0  0.9399999999999999 0.12 0  0.96 0.12 0  0.98 0.12 0  1 0.12 0  1.02 0.12 0  1.04 0.12 0  1.06 0.12 0  1.08 0.12 0  1.1 0.12 0  1.12 0.12 0  1.14 0.12 0  1.16 0.12 0  1.18 0.12 0  1.2 0.12 0  1.22 0.12 0  1.24 0.12 0  1.26 0.12 0  1.28 0.12 0  1.3 0.12 0  1.32 0.12 0  1.34 0.12 0  1.36 0.12 0  1.38 0.12 0  1.4 0.12 0  1.42 0.12 0  1.44 0.12 0  1.46 0.12 0  1.48 0.12 0  1.5 0.12 0  1.52 0.12 0  1.54 0.12 0  1.56 0.12 0  1.58 0.12 0  1.6 0.12 0  1.62 0.12 0  1.64 0.12 0  1.66 0.12 0  1.68 0.12 0  1.7 0.12 0  1.72 0.12 0  1.74 0.12 0  1.76 0.12 0  1.78 0.12 0  1.8 0.12 0  1.82 0.12 0  1.84 0.12 0  1.86 0.12 0  1.88 0.12 0  1.9 0.12 0  1.92 0.12 0  1.94 0.12 0  1.96 0.12 0  1.98 0.12 0  2 0.12 0  0 0.14 0  0.02 0.14 0  0.04 0.14 0  0.06 0.14 0  0.08 0.14 0  0.1 0.14 0  0.12 0.14 0  0.14 0.14 0  0.16 0.14 0  0.18 0.14 0  0.2 0.14 0  0.22 0.14 0  0.24 0.14 0  0.26 0.14 0  0.28 0.14 0  0.3 0.14 0  0.32 0.14 0  0.34 0.14 0  0.36 0.14 0  0.38 0.14 0  0.4 0.14 0  0.42 0.14 0  0.44 0.14 0  0.46 0.14 0  0.48 0.14 0  0.5 0.14 0  0.52 0.14 0  0.54 0.14 0  0.5600000000000001 0.14 0  0.58 0.14 0  0.6 0.14 0  0.62 0.14 0  0.64 0.14 0  0.66 0.14 0  0.68 0.14 0  0.7 0.14 0  0.72 0.14 0  0.74 0.14 0  0.76 0.14 0  0.78 0.14 0  0.8 0.14 0  0.82 0.14 0  0.84 0.14 0  0.86 0.14 0  0.88 0.14 0  0.9 0.14 0  0.92 0.14 0  0.9399999999999999 0.14 0  0.96 0.14 0  0.98 0.14 0  1 0.14 0  1.02 0.14 0  1.04 0.14 0  1.06 0.14 0  1.08 0.14 0  1.1 0.14 0  1.12 0.14 0  1.14 0.14 0  1.16 0.14 0  1.18 0.14 0  1.2 0.14 0  1.22 0.14 0  1.24 0.14 0  1.26 0.14 0  1.28 0.14 0  1.3 0.14 0  1.32 0.14 0  1.34 0.14 0  1.36 0.14 0  1.38 0.14 0  1.4 0.14 0  1.42 0.14 0  1.44 0.14 0  1.46 0.14 0  1.48 0.14 0  1
[...]
<PointData  Scalars="sols[i]"> 
<DataArray  type="Float64"  Name="sols[i]"  format="ascii">5.1205997757384630e-02  3.4664490907220090e-02  3.4664491126908718e-02  3.4664491560706071e-02  3.4664492340748816e-02  3.4664493670341565e-02  3.4664495834483430e-02  3.4664499203318405e-02  3.4664504233652207e-02  3.4664511475033064e-02  3.4664521587154752e-02  3.4664535377282521e-02  3.4664553871421422e-02  3.4664578443444331e-02  3.4664611045223670e-02  3.4664654616161736e-02  3.4664713813056733e-02  3.4664796307048870e-02  3.4664915062870810e-02  3.4665092242144160e-02  3.4665365615990019e-02  3.4665798461487846e-02  3.4666493515146571e-02  3.4667610124558983e-02  3.4669380691880490e-02  3.4672117781348294e-02  3.4676198235608129e-02  3.4682009115736885e-02  3.4689848093763839e-02  3.4699791822431394e-02  3.4711573878350381e-02  3.4724525433242934e-02  3.4737612303092399e-02  3.4749574991304114e-02  3.4759148989232769e-02  3.4765306774114248e-02  3.4767448204868920e-02  3.4765495341014648e-02  3.4759885803550675e-02  3.4751466469086709e-02  3.4741301731357005e-02  3.4730453053012221e-02  3.4719804986637355e-02  3.4709978019834220e-02  3.4701322508012132e-02  3.4693965212203491e-02  3.4687876890148989e-02  3.4682937273755640e-02  3.4678985696279210e-02  3.4675854800480847e-02  3.4673389587457533e-02  3.4671455904341779e-02  3.4669942411486319e-02  3.4668759099101845e-02  3.4667834353051569e-02  3.4667111715768584e-02  3.4666546898934315e-02  3.4666105247538818e-02  3.4665759680768807e-02  3.4665489056259796e-02  3.4665276882660495e-02  3.4665110309080746e-02  3.4664979331595625e-02  3.4664876169713491e-02  3.4664794775893584e-02  3.4664730450738521e-02  3.4664679540785663e-02  3.4664639202673084e-02  3.4664607219181943e-02  3.4664581856700884e-02  3.4664561754811196e-02  3.4664545841724972e-02  3.4664533269134087e-02  3.4664523362786422e-02  3.4664515584668869e-02  3.4664509504248042e-02  3.4664504776284098e-02  3.4664501123675480e-02  3.4664498323825593e-02  3.4664496197742242e-02  3.4664494601238348e-02  3.4664493417886522e-02  3.4664492553561958e-02  3.4664491932268685e-02  3.4664491493026126e-02  3.4664491187483167e-02  3.4664490977958332e-02  3.4664490835746242e-02  3.4664490739536244e-02  3.4664490673973869e-02  3.4664490628351009e-02  3.4664490595485473e-02  3.4664490570786889e-02  3.4664490551509275e-02  3.4664490536157076e-02  3.4664490524012312e-02  3.4664490514746155e-02  3.4664490508118859e-02  3.4664490503806968e-02  3.4664490501480544e-02  9.8068377255171577e-02  3.4664490901412583e-02  1.7608107412320786e-02  1.7608107527318929e-02  1.7608107756120626e-02  1.7608108158204055e-02  1.7608108822124831e-02  1.7608109870946256e-02  1.7608111466266844e-02  1.7608113812243892e-02  1.7608117162563216e-02  1.7608121834175126e-02  1.7608128233051631e-02  1.7608136900163780e-02  1.7608148591586940e-02  1.7608164417458338e-02  1.7608186084993135e-02  1.7608216329090300e-02  1.7608259683075639e-02  1.7608323857981181e-02  1.7608422172445824e-02  1.7608577689534295e-02  1.7608829880070401e-02  1.7609244513005325e-02  1.7609926650464944e-02  1.7611034554663920e-02  1.7612788681820535e-02  1.7615465425065868e-02  1.7619362570608112e-02  1.7624727595861325e-02  1.7631655786159470e-02  1.7639990697998764e-02  1.7649271492320075e-02  1.7658753457547548e-02  1.7667507928085236e-02  1.7674587979097094e-02  1.7679215014309788e-02  1.7680925185283209e-02  1.7679641802272609e-02  1.7675675057655483e-02  1.7669648321203948e-02  1.7662353112352033e-02  1.7654576855430790e-02  1.7646968664611132e-02  1.7639975905446560e-02  1.7633843709729896e-02  1.7628653361656282e-02  1.7624374725629860e-02  1.7620914811210128e-02  1.7618154466101731e-02  1.7615972110450979e-02  1.7614256654918642e-02  1.7612912871794187e-02  1.7611862276166592e-02  1.7611041732203087e-02  1.7610401173926725e-02  1.7609901212972952e-02  1.7609510986667912e-02  1.7609206358843294e-02  1.7608968472101839e-02  1.7608782604319726e-02  1.7608637271276838e-02  1.7608523523145278e-02  1.7608434392409802e-02  1.7608364460012245e-02  1.7608309514290689e-02  1.7608266283154237e-02  1.7608232224190983e-02  1.7608205360641810e-02  1.7608184153645259e-02  1.7608167403071105e-02  1.7608154170802158e-02  1.7608143721568097e-02  1.7608135477436233e-02  1.7608128982870626e-02  1.7608123877910064e-02  1.7608119877524423e-02  1.7608116755620917e-02  1.7608114332523930e-02  1.7608112465064815e-02  1.7608111038689388e-02  1.7608109961206490e-02  1.7608109157939419e-02  1.7608108568092161e-02  1.7608108142123390e-02  1.7608107839875091e-02  1.7608107629189136e-02  1.7608107484784960e-02  1.7608107387246202e-02  1.7608107322051203e-02  1.7608107278645584e-02  1.7608107249586773e-02  1.7608107229793377e-02  1.7608107215918906e-02  1.7608107205851379e-02  1.7608107198325215e-02  1.7608107192625965e-02  1.7608107188365949e-02  1.7608107185316482e-02  1.7608107183293288e-02  1.7608107182118866e-02  3.4664490501389103e-02  3.4664491102109674e-02  1.7608107518585721e-02  1.7608107673262690e-02  1.7608107964474297e-02  1.7608108447270700e-02  1.7608109197746469e-02  1.7608110316774998e-02  1.7608111937402821e-02  1.7608114236519635e-02  1.7608117453584184e-02  1.7608121921700880e-02  1.7608128119531649e-02  1.7608136757410783e-02  1.7608148919538949e-02  1.7608166300243644e-02  1.7608191604360231e-02  1.7608229246354322e-02  1.7608286609337477e-02  1.7608376358276438e-02  1.7608520691393150e-02  1.7608758973133031e-02  1.7609160794050463e-02  1.7609846696610452e-02  1.7611017603060837e-02  1.7612989840311091e-02  1.7616224134340667e-02  1.7621324582161191e-02  1.7628973090841479e-02  1.7639769680726634e-02  1.7653986736960059e-02  1.7671323066597855e-02  1.7690778973093457e-02  1.7710703877580808e-02  1.7729026863523595e-02  1.7743650117227908e-02  1.7752891500595641e-02  1.7755806634117424e-02  1.7752321357894243e-02  1.7743218765495512e-02  1.7729969913127336e-02  1.7714376720673882e-02  1.7698151284884930e-02  1.7682622325710183e-02  1.7668633834597668e-02  1.7656585241690712e-02  1.7646544049243082e-02  1.7638372668364811e-02  1.7631832641042896e-02  1.7626655952873063e-02  1.7622586843466397e-02  1.7619401440469355e-02  1.7616913414234950e-02  1.7614972321881694e-02  1.7613458826495648e-02  1.7612279139996415e-02  1.7611359866361805e-02  1.7610643660375645e-02  1.7610085735674588e-02  1.7609651120463095e-02  1.7609312518870955e-02  1.7609048642378521e-02  1.7608842904170623e-02  1.7608682394817606e-02  1.7608557076950776e-02  1.7608459152108985e-02  1.7608382563861484e-02  1.7608322608847916e-02  1.7608275633246011e-02  1.7608238796702966e-02  1.7608209889265810e-02  1.7608187189743892e-02  1.7608169356309815e-02  1.7608155342058892e-02  1.7608144329797997e-02  1.7608135681567751e-02  1.7608128899370766e-02  1.7608123594356477e-02  1.7608119462384671e-02  1.7608116264496289e-02  1.7608113811347310e-02  1.7608111951054092e-02  1.7608110560097499e-02  1.7608109536921313e-02  1.7608108797712227e-02  1.7608108273700757e-02  1.7608107909309390e-02  1.7608107660617794e-02  1.7608107493840799e-02  1.7608107383733317e-02  1.7608107311976134e-02  1.7608107265648314e-02  1.7608107235879779e-02  1.7608107216735783e-02  1.7608107204342326e-02  1.7608107196230412e-02  1.7608107190864589e-02  1.7608107187315331e-02  1.7608107185036553e-02  1.7608107183702870e-02  1.7608107183042752e-02  3.4664490503295141e-02  3.4664491490149149e-02  1.7608107725051732e-02  1.7608107939580821e-02  1.7608108316372634e-02  1.7608108908866649e-02  1.7608109788982550e-02  1.7608111050767011e-02  1.7608112823930735e-02  1.7608115298421843e-02  1.7608118764746338e-02  1.7608123679758177e-02  1.7608130773839735e-02  1.7608141224025868e-02  1.7608156931417953e-02  1.7608180966563920e-02  1.7608218298451737e-02  1.7608277035024454e-02  1.7608370643333149e-02  1.7608522104174022e-02  1.7608771857933574e-02  1.7609192865428086e-02  1.7609918041935513e-02  1.7611186880200174e-02  1.7613416917753380e-02  1.7617297464158070e-02  1.7623882310707207e-02  1.7634623139146342e-02  1.7651246971840402e-02  1.7675375588717030e-02  1.7707870701207412e-02  1.7748151322110630e-02  1.7793858224585922e-02  1.7840950930582807e-02  1.7884261719138952e-02  1.7918530777371513e-02  1.7939611739866308e-02  1.7945288101434708e-02  1.7935531270132102e-02  1.7912466092479193e-02  1.7879966534674070e-02  1.7842650587529128e-02  1.7804699234172539e-02  1.7769144656855303e-02  1.7737737515572699e-02  1.7711149877480487e-02  1.7689314204971402e-02  1.7671754903177662e-02  1.7657830615199030e-02  1.7646883968258843e-02  1.7638320519092490e-02  1.7631638436371222e-02  1.7626430328905946e-02  1.7622372890960365e-02  1.7619212596417275e-02  1.7616751582175873e-02  1.7614835602430975e-02  1.7613344379447525e-02  1.7612184057045996e-02  1.7611281373432021e-02  1.7610579163203431e-02  1.7610032856831295e-02  1.7609607742186211e-02  1.7609276815609337e-02  1.7609019090974124e-02  1.7608818270019061e-02  1.7608661699712203e-02  1.7608539556959388e-02  1.7608444213271172e-02  1.7608369741441990e-02  1.7608311533486277e-02  1.7608266005273543e-02  1.7608230368421046e-02  1.7608202454081158e-02  1.7608180576593618e-02  1.7608163427613548e-02  1.7608149993355922e-02  1.7608139489212221e-02  1.7608131307419717e-02  1.7608124974813223e-02  1.7608120118909304e-02  1.7608116441476855e-02  1.7608113699128451e-02  1.7608111690261032e-02  1.7608110247105790e-02  1.7608109231164740e-02  1.7608108530285674e-02  1.7608108056073726e-02  1.7608107740990558e-02  1.7608107535062444e-02  1.7608107402440086e-02  1.7608107318130877e-02  1.7608107265149022e-02  1.7608107232201978e-02  1.7608107211920552e-02  1.7608107199570351e-02  1.7608107192156105e-02  1.7608107187826173e-02  1.7608107185491138e-02  1.7608107184552881e-02  1.7608107184519543e-02  3.4664490506622042e-02  3.4664492167617050e-02  1.7608108075567550e-02  1.7608108361964987e-02  1.7608108840984460e-02  1.7608109570612408e-02  1.7608110630847801e-02  1.7608112131609403e-02  1.7608114239252466e-02  1.7608117224966517e-02  1.7608121546250750e-02  1.7608127982036734e-02  1.7608137853923757e-02  1.7608153381916767e-02  1.7608178246077823e-02  1.7608218464166679e-02  1.7608283773931890e-02  1.7608389890095631e-02  1.7608562434661440e-02  1.7608844304564011e-02  1.7609310232068257e-02  1.7610095933956859e-02  1.7611454847966793e-02  1.7613861781968717e-02  1.7618184750016266e-02  1.7625932299468280e-02  1.7639536259578266e-02  1.7662535330724319e-02  1.7699396853865963e-02  1.7754639018553557e-02  1.7831047954241414e-02  1.7927703065824890e-02  1.8039048392305981e-02  1.8154983165415743e-02  1.8262067510359456e-02  1.8346331184942114e-02  1.8396858626445477e-02  1.8408073302037708e-02  1.8380191633241245e-02  1.8319211875330206e-02  1.8235973022892062e-02  1.8143010237998101e-02  1.8050945699999855e-02  1.7966791653072314e-02  1.7894075597045533e-02  1.7833673401462222e-02  1.7784828025104244e-02  1.7746021822128945e-02  1.7715527030228585e-02  1.7691706394772747e-02  1.7673151498359602e-02  1.7658713099432358e-02  1.7647479177394468e-02  1.7638737024653472e-02  1.7631933313886017e-02  1.7626638615688778e-02  1.7622519141101189e-02  1.7619315005901175e-02  1.7616823557478154e-02  1.7614886679761133e-02  1.7613381062905911e-02  1.7612210626153275e-02  1.7611300588046584e-02  1.7610592814566894e-02  1.7610042155387896e-02  1.7609613563829611e-02  1.7609279842051864e-02  1.7609019880207757e-02  1.7608817286470888e-02  1.7608659325356359e-02  1.7608536096705259e-02  1.7608439901682187e-02  1.7608364753550789e-02  1.7608305999850540e-02  1.7608260029973340e-02  1.7608224047938922e-02  1.7608195894465776e-02  1.7608173905806802e-02  1.7608156799892142e-02  1.7608143583435220e-02  1.7608133476643806e-02  1.7608125854438859e-02  1.7608120203922058e-02  1.7608116096969675e-02  1.7608113174925763e-02  1.7608111140868965e-02  1.7608109754914978e-02  1.7608108829389978e-02  1.7608108222566088e-02  1.7608107831117263e-02  1.7608107582156796e-02  1.7608107425763773e-02  1.7608107328604457e-02  1.7608107268885950e-02  1.7608107232599524e-02  1.7608107210859123e-02  1.7608107198096988e-02  1.7608107190891474e-02  1.7608107187238334e-02  1.7608107186068516e-02  1.7608107186556025e-02  3.4664490511277249e-02  3.4664493278163976e-02  1.7608108628553099e-02  1.7608108981151088e-02  1.7608109567480434e-02  1.7608110459439739e-02  1.7608111760176348e-02  1.7608113625507578e-02  1.7608116316649484e-02  1.7608120294335589e-02  1.7608126381100871e-02  1.7608136036615429e-02  1.7608151815153222e-02  1.7608178105862092e-02  1.7608222296871104e-02  1.7608296560348045e-02  1.7608420557646363e-02  1.7608625612779788e-02  1.7608961575961701e-02  1.7609509342444651e-02  1.7610406079478259e-02  1.7611898676528688e-02  1.7614455918857380e-02  1.7618990929498535e-02  1.7627263029577091e-02  1.7642514378877171e-02  1.7670300605603512e-02  1.7719240190527636e-02  1.7801019511333865e-02  1.7928618172394432e-02  1.8111473751333783e-02  1.8349555442033191e-02  1.8630692076115896e-02  1.8929722024253463e-02  1.9210013458409562e-02  1.9431110792067111e-02  1.9560866050443347e-02  1.9583290140217462e-02  1.9499323072608942e-02  1.9327390636794027e-02  1.9101147821142778e-02  1.8857744566280619e-02  1.8625397514933910e-02  1.8419967246209968e-02  1.8247536528279741e-02  1.8107722219928006e-02  1.7996785152666717e-02  1.7909914677221753e-02  1.7842368874242249e-02  1.7789989966958165e-02  1.7749387683218706e-02  1.7717894479133814e-02  1.7693442369122299e-02  1.7674441239731803e-02  1.7659669538831965e-02  1.7648184599754955e-02  1.7639256082259060e-02  1.7632316598832683e-02  1.7626924292526547e-02  1.7622734788828351e-02  1.7619479859506969e-02  1.7616950755191811e-02  1.7614985182223500e-02  1.7613457113638091e-02  1.7612268758958244e-02  1.7611344262629648e-02  1.7610624786244592e-02  1.7610064674426044e-02  1.7609628478164732e-02  1.7609288654112036e-02  1.7609023788275939e-02  1.7608817226049258e-02  1.7608656016330125e-02  1.7608530096513073e-02  1.7608431661823347e-02  1.7608354675356166e-02  1.7608294484174298e-02  1.7608247513722895e-02  1.7608211019412900e-02  1.7608182881514119e-02  1.7608161436999527e-02  1.7608145347870419e-02  1.7608133507489104e-02  1.7608124983419019e-02  1.7608118989139405e-02  1.7608114872489637e-02  1.7608112108981944e-02  1.7608110292405343e-02  1.7608109120390788e-02  1.7608108376308024e-02  1.7608107910259782e-02  1.7608107621624468e-02  1.7608107444561236e-02  1.7608107336873798e-02  1.7608107271956969e-02  1.7608107233244723e-02  1.7608107210533352e-02  1.7608107197636329e-02  1.7608107190949907e-02  1.7608107188560380e-02  1.7608107189149354e-02  3.4664490517022362e-02  3.4664494997512008e-02  1.7608109453865043e-02  1.7608109839077110e-02  1.7608110520161559e-02  1.7608111597082112e-02  1.7608113216495771e-02  1.7608115625057517e-02  1.7608119272383982e-02  1.7608124992954780e-02  1.7608134327523287e-02  1.7608150081712525e-02  1.7608177272236271e-02  1.7608224679710186e-02  1.7608307306047434e-02  1.7608450116077909e-02  1.7608693540104060e-02  1.7609101444612987e-02  1.7609773093228649e-02  1.7610863303178511e-02  1.7612622549900377e-02  1.7615486934157210e-02  1.7620285111995371e-02  1.7628691690939158e-02  1.7644132248305133e-02  1.7673374527371468e-02  1.7728891361790806e-02  1.7831585686768573e-02  1.8012464230669815e-02  1.8310645146136319e-02  1.8761041285445933e-02  1.9376167186948737e-02  2.0138355978699087e-02  2.0990125569425366e-02  2.1824400701595265e-02  2.2501064768647862e-02  2.2897164815952116e-02  2.2948176771794542e-02  2.2654791413024181e-02  2.2089481383025800e-02  2.1384900695276838e-02  2.0672935370122186e-02  2.0034053411530976e-02  1.9498828008026187e-02  1.9069454368958256e-02  1.8733710230638141e-02  1.8474571463458773e-02  1.8275822944547958e-02  1.8123614179395543e-02  1.8006819159880418e-02  1.7916942834963576e-02  1.7847590316140683e-02  1.7793940617238834e-02  1.7752364046480458e-02  1.7720112248145500e-02  1.7695081390683667e-02  1.7675650999925949e-02  1.7660568206712787e-02  1.7648860477981303e-02  1.7639771962074939e-02  1.7632715633618221e-02  1.7627235709817501e-02  1.7622978538092797e-02  1.7619670002066101e-02  1.7617097705360577e-02  1.7615097060716327e-02  1.7613540502197940e-02  1.7612329090313784e-02  1.7611386015995937e-02  1.7610651600118189e-02  1.7610079439259189e-02  1.7609633437644587e-02  1.7609285523498948e-02  1.7609013887334837e-02  1.7608801619166031e-02  1.7608635650641524e-02  1.7608505926360041e-02  1.7608404742308702e-02  1.7608326203322044e-02  1.7608265768733072e-02  1.7608219874631383e-02  1.7608185636956403e-02  1.7608160644810966e-02  1.7608142843450466e-02  1.7608130486869343e-02  1.7608122126566192e-02  1.7608116605248192e-02  1.7608113037739220e-02  1.7608110776112570e-02  1.7608109365121791e-02  1.7608108496263368e-02  1.7608107966803958e-02  1.7608107646844028e-02  1.7608107454816026e-02  1.7608107340298339e-02  1.7608107272493040e-02  1.7608107232774228e-02  1.7608107210019180e-02  1.7608107197783843e-02  1.7608107192611772e-02  1.7608107192394782e-02  3.4664490523549057e-02  3.4664497510089251e-02  1.7608110625211497e-02  1.7608110976015095e-02  1.7608111719490740e-02  1.7608113006129640e-02  1.7608115057552602e-02  1.7608118284488786e-02  1.7608123482626404e-02  1.7608132180958275e-02  1.7608147273184372e-02  1.7608174142525038e-02  1.7608222610881845e-02  1.7608310203836311e-02  1.7608467402973900e-02  1.7608745701527422e-02  1.7609229307484122e-02  1.7610051254927025e-02  1.7611414996248586e-02  1.7613625394227728e-02  1.7617144647541310e-02  1.7622723531928453e-02  1.7631743121419012e-02  1.7647071159376478e-02  1.7674998424135231e-02  1.7729074347844771e-02  1.7836610466995164e-02  1.8047945679688163e-02  1.8446909142786915e-02  1.9160291453492368e-02  2.0336148819706277e-02  2.2094527863753363e-02  2.4519515307858092e-02  2.7603382473913935e-02  3.1096739383014698e-02  3.4347182933234882e-02  3.6429202211332556e-02  3.6664847345682025e-02  3.4984348264541040e-02  3.2051505351297943e-02  2.8877488969368696e-02  2.6119841850351693e-02  2.3955000092692434e-02  2.2326027215943723e-02  2.1125433426929976e-02  2.0245708063185756e-02  1.9598738231791840e-02  1.9120224644993279e-02  1.8763421472345391e-02  1.8494773925827369e-02  1.8290886077602080e-02  1.8135183657691258e-02  1.8015661510855832e-02  1.7923584456214593e-02  1.7852499550524530e-02  1.7797541084550277e-02  1.7755009700117487e-02  1.7722077151143521e-02  1.7696564692247937e-02  1.7676790197710332e-02  1.7661455486573802e-02  1.7649557278214871e-02  1.7640320002092636e-02  1.7633144563615494e-02  1.7627567904196711e-02  1.7623231822176830e-02  1.7619859082557900e-02  1.7617234854385162e-02  1.7615192434099033e-02  1.7613602331659196e-02  1.7612363871047067e-02  1.7611398737176778e-02  1.7610646025509307e-02  1.7610058424950246e-02  1.7609599266642368e-02  1.7609240237203849e-02  1.7608959589836402e-02  1.7608740712699404e-02  1.7608570942898735e-02  1.7608440555950240e-02  1.7608341910917098e-02  1.7608268775079872e-02  1.7608215866626462e-02  1.7608178622419510e-02  1.7608153135433718e-02  1.7608136167550158e-02  1.7608125155015898e-02  1.7608118166667092e-02  1.7608113816093240e-02  1.7608111149998919e-02  1.7608109536644174e-02  1.7608108569925642e-02  1.7608107995069174e-02  1.7608107655254942e-02  1.7608107455358905e-02  1.7608107338322920e-02  1.7608107270233174e-02  1.7608107231138644e-02  1.7608107209552006e-02  1.7608107199226727e-02  1.7608107196687643e-02  3.4664490530914902e-02  3.4664500978324082e-02  1.7608112209330576e-02  1.7608112427445519e-02  1.7608113185763313e-02  1.7608114720768953e-02  1.7608117380915517e-02  1.7608121862953217e-02  1.7608129574885369e-02  1.7608143293975542e-02  1.7608168390878375e-02  1.7608215066529036e-02  1.7608302328637297e-02  1.7608464826861465e-02  1.7608764128106993e-02  1.7609306384608323e-02  1.7610268267802803e-02  1.7611931986184336e-02  1.7614728041799907e-02  1.7619283491031847e-02  1.7626484612827141e-02  1.7637617893116214e-02  1.76548254742