<?xml version="1.0"?>
<VTKFile type="UnstructuredGrid"  version="0.1"  >
<UnstructuredGrid>
<Piece  NumberOfPoints="5151" NumberOfCells="10000">
<Points>
<DataArray  type="Float64"  NumberOfComponents="3"  format="ascii">0 0 0  0.02 0 0  0.04 0 0  0.06 0 0  0.08 0 0  0.1 0 0  0.12 0 0  0.14 0 0  0.16 0 0  0.18 0 0  0.2 0 0  0.22 0 0  0.24 0 0  0.26 0 0  0.28 0 0  0.3 0 0  0.32 0 0  0.34 0 0  0.36 0 0  0.38 0 0  0.4 0 0  0.42 0 0  0.44 0 0  0.46 0 0  0.48 0 0  0.5 0 0  0.52 0 0  0.54 0 0  0.5600000000000001 0 0  0.58 0 0  0.6 0 0  0.62 0 0  0.64 0 0  0.66 0 0  0.68 0 0  0.7 0 0  0.72 0 0  0.74 0 0  0.76 0 0  0.78 0 0  0.8 0 0  0.82 0 0  0.84 0 0  0.86 0 0  0.88 0 0  0.9 0 0  0.92 0 0  0.9399999999999999 0 0  0.96 0 0  0.98 0 0  1 0 0  1.02 0 0  1.04 0 0  1.06 0 0  1.08 0 0  1.1 0 0  1.12 0 0  1.14 0 0  1.16 0 0  1.18 0 0  1.2 0 0  1.22 0 0  1.24 0 0  1.26 0 0  1.28 0 0  1.3 0 0  1.32 0 0  1.34 0 0  1.36 0 0  1.38 0 0  1.4 0 0  1.42 0 0  1.44 0 0  1.46 0 0  1.48 0 0  1.5 0 0  1.52 0 0  1.54 0 0  1.56 0 0  1.58 0 0  1.6 0 0  1.62 0 0  1.64 0 0  1.66 0 0  1.68 0 0  1.7 0 0  1.72 0 0  1.74 0 0  1.76 0 0  1.78 0 0  1.8 0 0  1.82 0 0  1.84 0 0  1.86 0 0  1.88 0 0  1.9 0 0  1.92 0 0  1.94 0 0  1.96 0 0  1.98 0 0  2 0 0  0 0.02 0  0.02 0.02 0  0.04 0.02 0  0.06 0.02 0  0.08 0.02 0  0.1 0.02 0  0.12 0.02 0  0.14 0.02 0  0.16 0.02 0  0.18 0.02 0  0.2 0.02 0  0.22 0.02 0  0.24 0.02 0  0.26 0.02 0  0.28 0.02 0  0.3 0.02 0  0.32 0.02 0  0.34 0.02 0  0.36 0.02 0  0.38 0.02 0  0.4 0.02 0  0.42 0.02 0  0.44 0.02 0  0.46 0.02 0  0.48 0.02 0  0.5 0.02 0  0.52 0.02 0  0.54 0.02 0  0.5600000000000001 0.02 0  0.58 0.02 0  0.6 0.02 0  0.62 0.02 0  0.64 0.02 0  0.66 0.02 0  0.68 0.02 0  0.7 0.02 0  0.72 0.02 0  0.74 0.02 0  0.76 0.02 0  0.78 0.02 0  0.8 0.02 0  0.82 0.02 0  0.84 0.02 0  0.86 0.02 0  0.88 0.02 0  0.9 0.02 0  0.92 0.02 0  0.9399999999999999 0.02 0  0.96 0.02 0  0.98 0.02 0  1 0.02 0  1.02 0.02 0  1.04 0.02 0  1.06 0.02 0  1.08 0.02 0  1.1 0.02 0  1.12 0.02 0  1.14 0.02 0  1.16 0.02 0  1.18 0.02 0  1.2 0.02 0  1.22 0.02 0  1.24 0.02 0  1.26 0.02 0  1.28 0.02 0  1.3 0.02 0  1.32 0.02 0  1.34 0.02 0  1.36 0.02 0  1.38 0.02 0  1.4 0.02 0  1.42 0.02 0  1.44 0.02 0  1.46 0.02 0  1.48 0.02 0  1.5 0.02 0  1.52 0.02 0  1.54 0.02 0  1.56 0.02 0  1.58 0.02 0  1.6 0.02 0  1.62 0.02 0  1.64 0.02 0  1.66 0.02 0  1.68 0.02 0  1.7 0.02 0  1.72 0.02 0  1.74 0.02 0  1.76 0.02 0  1.78 0.02 0  1.8 0.02 0  1.82 0.02 0  1.84 0.02 0  1.86 0.02 0  1.88 0.02 0  1.9 0.02 0  1.92 0.02 0  1.94 0.02 0  1.96 0.02 0  1.98 0.02 0  2 0.02 0  0 0.04 0  0.02 0.04 0  0.04 0.04 0  0.06 0.04 0  0.08 0.04 0  0.1 0.04 0  0.12 0.04 0  0.14 0.04 0  0.16 0.04 0  0.18 0.04 0  0.2 0.04 0  0.22 0.04 0  0.24 0.04 0  0.26 0.04 0  0.28 0.04 0  0.3 0.04 0  0.32 0.04 0  0.34 0.04 0  0.36 0.04 0  0.38 0.04 0  0.4 0.04 0  0.42 0.04 0  0.44 0.04 0  0.46 0.04 0  0.48 0.04 0  0.5 0.04 0  0.52 0.04 0  0.54 0.04 0  0.5600000000000001 0.04 0  0.58 0.04 0  0.6 0.04 0  0.62 0.04 0  0.64 0.04 0  0.66 0.04 0  0.68 0.04 0  0.7 0.04 0  0.72 0.04 0  0.74 0.04 0  0.76 0.04 0  0.78 0.04 0  0.8 0.04 0  0.82 0.04 0  0.84 0.04 0  0.86 0.04 0  0.88 0.04 0  0.9 0.04 0  0.92 0.04 0  0.9399999999999999 0.04 0  0.96 0.04 0  0.98 0.04 0  1 0.04 0  1.02 0.04 0  1.04 0.04 0  1.06 0.04 0  1.08 0.04 0  1.1 0.04 0  1.12 0.04 0  1.14 0.04 0  1.16 0.04 0  1.18 0.04 0  1.2 0.04 0  1.22 0.04 0  1.24 0.04 0  1.26 0.04 0  1.28 0.04 0  1.3 0.04 0  1.32 0.04 0  1.34 0.04 0  1.36 0.04 0  1.38 0.04 0  1.4 0.04 0  1.42 0.04 0  1.44 0.04 0  1.46 0.04 0  1.48 0.04 0  1.5 0.04 0  1.52 0.04 0  1.54 0.04 0  1.56 0.04 0  1.58 0.04 0  1.6 0.04 0  1.62 0.04 0  1.64 0.04 0  1.66 0.04 0  1.68 0.04 0  1.7 0.04 0  1.72 0.04 0  1.74 0.04 0  1.76 0.04 0  1.78 0.04 0  1.8 0.04 0  1.82 0.04 0  1.84 0.04 0  1.86 0.04 0  1.88 0.04 0  1.9 0.04 0  1.92 0.04 0  1.94 0.04 0  1.96 0.04 0  1.98 0.04 0  2 0.04 0  0 0.06 0  0.02 0.06 0  0.04 0.06 0  0.06 0.06 0  0.08 0.06 0  0.1 0.06 0  0.12 0.06 0  0.14 0.06 0  0.16 0.06 0  0.18 0.06 0  0.2 0.06 0  0.22 0.06 0  0.24 0.06 0  0.26 0.06 0  0.28 0.06 0  0.3 0.06 0  0.32 0.06 0  0.34 0.06 0  0.36 0.06 0  0.38 0.06 0  0.4 0.06 0  0.42 0.06 0  0.44 0.06 0  0.46 0.06 0  0.48 0.06 0  0.5 0.06 0  0.52 0.06 0  0.54 0.06 0  0.5600000000000001 0.06 0  0.58 0.06 0  0.6 0.06 0  0.62 0.06 0  0.64 0.06 0  0.66 0.06 0  0.68 0.06 0  0.7 0.06 0  0.72 0.06 0  0.74 0.06 0  0.76 0.06 0  0.78 0.06 0  0.8 0.06 0  0.82 0.06 0  0.84 0.06 0  0.86 0.06 0  0.88 0.06 0  0.9 0.06 0  0.92 0.06 0  0.9399999999999999 0.06 0  0.96 0.06 0  0.98 0.06 0  1 0.06 0  1.02 0.06 0  1.04 0.06 0  1.06 0.06 0  1.08 0.06 0  1.1 0.06 0  1.12 0.06 0  1.14 0.06 0  1.16 0.06 0  1.18 0.06 0  1.2 0.06 0  1.22 0.06 0  1.24 0.06 0  1.26 0.06 0  1.28 0.06 0  1.3 0.06 0  1.32 0.06 0  1.34 0.06 0  1.36 0.06 0  1.38 0.06 0  1.4 0.06 0  1.42 0.06 0  1.44 0.06 0  1.46 0.06 0  1.48 0.06 0  1.5 0.06 0  1.52 0.06 0  1.54 0.06 0  1.56 0.06 0  1.58 0.06 0  1.6 0.06 0  1.62 0.06 0  1.64 0.06 0  1.66 0.06 0  1.68 0.06 0  1.7 0.06 0  1.72 0.06 0  1.74 0.06 0  1.76 0.06 0  1.78 0.06 0  1.8 0.06 0  1.82 0.06 0  1.84 0.06 0  1.86 0.06 0  1.88 0.06 0  1.9 0.06 0  1.92 0.06 0  1.94 0.06 0  1.96 0.06 0  1.98 0.06 0  2 0.06 0  0 0.08 0  0.02 0.08 0  0.04 0.08 0  0.06 0.08 0  0.08 0.08 0  0.1 0.08 0  0.12 0.08 0  0.14 0.08 0  0.16 0.08 0  0.18 0.08 0  0.2 0.08 0  0.22 0.08 0  0.24 0.08 0  0.26 0.08 0  0.28 0.08 0  0.3 0.08 0  0.32 0.08 0  0.34 0.08 0  0.36 0.08 0  0.38 0.08 0  0.4 0.08 0  0.42 0.08 0  0.44 0.08 0  0.46 0.08 0  0.48 0.08 0  0.5 0.08 0  0.52 0.08 0  0.54 0.08 0  0.5600000000000001 0.08 0  0.58 0.08 0  0.6 0.08 0  0.62 0.08 0  0.64 0.08 0  0.66 0.08 0  0.68 0.08 0  0.7 0.08 0  0.72 0.08 0  0.74 0.08 0  0.76 0.08 0  0.78 0.08 0  0.8 0.08 0  0.82 0.08 0  0.84 0.08 0  0.86 0.08 0  0.88 0.08 0  0.9 0.08 0  0.92 0.08 0  0.9399999999999999 0.08 0  0.96 0.08 0  0.98 0.08 0  1 0.08 0  1.02 0.08 0  1.04 0.08 0  1.06 0.08 0  1.08 0.08 0  1.1 0.08 0  1.12 0.08 0  1.14 0.08 0  1.16 0.08 0  1.18 0.08 0  1.2 0.08 0  1.22 0.08 0  1.24 0.08 0  1.26 0.08 0  1.28 0.08 0  1.3 0.08 0  1.32 0.08 0  1.34 0.08 0  1.36 0.08 0  1.38 0.08 0  1.4 0.08 0  1.42 0.08 0  1.44 0.08 0  1.46 0.08 0  1.48 0.08 0  1.5 0.08 0  1.52 0.08 0  1.54 0.08 0  1.56 0.08 0  1.58 0.08 0  1.6 0.08 0  1.62 0.08 0  1.64 0.08 0  1.66 0.08 0  1.68 0.08 0  1.7 0.08 0  1.72 0.08 0  1.74 0.08 0  1.76 0.08 0  1.78 0.08 0  1.8 0.08 0  1.82 0.08 0  1.84 0.08 0  1.86 0.08 0  1.88 0.08 0  1.9 0.08 0  1.92 0.08 0  1.94 0.08 0  1.96 0.08 0  1.98 0.08 0  2 0.08 0  0 0.1 0  0.02 0.1 0  0.04 0.1 0  0.06 0.1 0  0.08 0.1 0  0.1 0.1 0  0.12 0.1 0  0.14 0.1 0  0.16 0.1 0  0.18 0.1 0  0.2 0.1 0  0.22 0.1 0  0.24 0.1 0  0.26 0.1 0  0.28 0.1 0  0.3 0.1 0  0.32 0.1 0  0.34 0.1 0  0.36 0.1 0  0.38 0.1 0  0.4 0.1 0  0.42 0.1 0  0.44 0.1 0  0.46 0.1 0  0.48 0.1 0  0.5 0.1 0  0.52 0.1 0  0.54 0.1 0  0.5600000000000001 0.1 0  0.58 0.1 0  0.6 0.1 0  0.62 0.1 0  0.64 0.1 0  0.66 0.1 0  0.68 0.1 0  0.7 0.1 0  0.72 0.1 0  0.74 0.1 0  0.76 0.1 0  0.78 0.1 0  0.8 0.1 0  0.82 0.1 0  0.84 0.1 0  0.86 0.1 0  0.88 0.1 0  0.9 0.1 0  0.92 0.1 0  0.9399999999999999 0.1 0  0.96 0.1 0  0.98 0.1 0  1 0.1 0  1.02 0.1 0  1.04 0.1 0  1.06 0.1 0  1.08 0.1 0  1.1 0.1 0  1.12 0.1 0  1.14 0.1 0  1.16 0.1 0  1.18 0.1 0  1.2 0.1 0  1.22 0.1 0  1.24 0.1 0  1.26 0.1 0  1.28 0.1 0  1.3 0.1 0  1.32 0.1 0  1.34 0.1 0  1.36 0.1 0  1.38 0.1 0  1.4 0.1 0  1.42 0.1 0  1.44 0.1 0  1.46 0.1 0  1.48 0.1 0  1.5 0.1 0  1.52 0.1 0  1.54 0.1 0  1.56 0.1 0  1.58 0.1 0  1.6 0.1 0  1.62 0.1 0  1.64 0.1 0  1.66 0.1 0  1.68 0.1 0  1.7 0.1 0  1.72 0.1 0  1.74 0.1 0  1.76 0.1 0  1.78 0.1 0  1.8 0.1 0  1.82 0.1 0  1.84 0.1 0  1.86 0.1 0  1.88 0.1 0  1.9 0.1 0  1.92 0.1 0  1.94 0.1 0  1.96 0.1 0  1.98 0.1 0  2 0.1 0  0 0.12 0  0.02 0.12 0  0.04 0.12 0  0.06 0.12 0  0.08 0.12 0  0.1 0.12 0  0.12 0.12 0  0.14 0.12 0  0.16 0.12 0  0.18 0.12 0  0.2 0.12 0  0.22 0.12 0  0.24 0.12 0  0.26 0.12 0  0.28 0.12 0  0.3 0.12 0  0.32 0.12 0  0.34 0.12 0  0.36 0.12 0  0.38 0.12 0  0.4 0.12 0  0.42 0.12 0  0.44 0.12 0  0.46 0.12 0  0.48 0.12 0  0.5 0.12 0  0.52 0.12 0  0.54 0.12 0  0.5600000000000001 0.12 0  0.58 0.12 0  0.6 0.12 0  0.62 0.12 0  0.64 0.12 0  0.66 0.12 0  0.68 0.12 0  0.7 0.12 0  0.72 0.12 0  0.74 0.12 0  0.76 0.12 0  0.78 0.12 0  0.8 0.12 0  0.82 0.12 0  0.84 0.12 0  0.86 0.12 0  0.88 0.12 0  0.9 0.12 0  0.92 0.12 0  0.9399999999999999 0.12 0  0.96 0.12 0  0.98 0.12 0  1 0.12 0  1.02 0.12 0  1.04 0.12 0  1.06 0.12 0  1.08 0.12 0  1.1 0.12 0  1.12 0.12 0  1.14 0.12 0  1.16 0.12 0  1.18 0.12 0  1.2 0.12 0  1.22 0.12 0  1.24 0.12 0  1.26 0.12 0  1.28 0.12 0  1.3 0.12 0  1.32 0.12 0  1.34 0.12 0  1.36 0.12 0  1.38 0.12 0  1.4 0.12 0  1.42 0.12 0  1.44 0.12 0  1.46 0.12 0  1.48 0.12 0  1.5 0.12 0  1.52 0.12 0  1.54 0.12 0  1.56 0.12 0  1.58 0.12 0  1.6 0.12 0  1.62 0.12 0  1.64 0.12 0  1.66 0.12 0  1.68 0.12 0  1.7 0.12 0  1.72 0.12 0  1.74 0.12 0  1.76 0.12 0  1.78 0.12 0  1.8 0.12 0  1.82 0.12 0  1.84 0.12 0  1.86 0.12 0  1.88 0.12 0  1.9 0.12 0  1.92 0.12 0  1.94 0.12 0  1.96 0.12 0  1.98 0.12 0  2 0.12 0  0 0.14 0  0.02 0.14 0  0.04 0.14 0  0.06 0.14 0  0.08 0.14 0  0.1 0.14 0  0.12 0.14 0  0.14 0.14 0  0.16 0.14 0  0.18 0.14 0  0.2 0.14 0  0.22 0.14 0  0.24 0.14 0  0.26 0.14 0  0.28 0.14 0  0.3 0.14 0  0.32 0.14 0  0.34 0.14 0  0.36 0.14 0  0.38 0.14 0  0.4 0.14 0  0.42 0.14 0  0.44 0.14 0  0.46 0.14 0  0.48 0.14 0  0.5 0.14 0  0.52 0.14 0  0.54 0.14 0  0.5600000000000001 0.14 0  0.58 0.14 0  0.6 0.14 0  0.62 0.14 0  0.64 0.14 0  0.66 0.14 0  0.68 0.14 0  0.7 0.14 0  0.72 0.14 0  0.74 0.14 0  0.76 0.14 0  0.78 0.14 0  0.8 0.14 0  0.82 0.14 0  0.84 0.14 0  0.86 0.14 0  0.88 0.14 0  0.9 0.14 0  0.92 0.14 0  0.9399999999999999 0.14 0  0.96 0.14 0  0.98 0.14 0  1 0.14 0  1.02 0.14 0  1.04 0.14 0  1.06 0.14 0  1.08 0.14 0  1.1 0.14 0  1.12 0.14 0  1.14 0.14 0  1.16 0.14 0  1.18 0.14 0  1.2 0.14 0  1.22 0.14 0  1.24 0.14 0  1.26 0.14 0  1.28 0.14 0  1.3 0.14 0  1.32 0.14 0  1.34 0.14 0  1.36 0.14 0  1.38 0.14 0  1.4 0.14 0  1.42 0.14 0  1.44 0.14 0  1.46 0.14 0  1.48 0.14 0  1
[...]
<PointData  Scalars="sols[i]"> 
<DataArray  type="Float64"  Name="sols[i]"  format="ascii">1.0234911251811939e-01  7.3836124012645055e-02  7.3836123442432872e-02  7.3836122375692814e-02  7.3836120558681537e-02  7.3836117599922313e-02  7.3836112933620565e-02  7.3836105805988733e-02  7.3836095287030015e-02  7.3836080302916954e-02  7.3836059684238065e-02  7.3836032227436593e-02  7.3835996768411766e-02  7.3835952267977248e-02  7.3835897908732143e-02  7.3835833201944687e-02  7.3835758101467919e-02  7.3835673119703682e-02  7.3835579438587151e-02  7.3835479006850141e-02  7.3835374613908961e-02  7.3835269931018646e-02  7.3835169512147109e-02  7.3835078750470240e-02  7.3835003791278622e-02  7.3834951408044636e-02  7.3834928854690021e-02  7.3834943712767956e-02  7.3835003756422407e-02  7.3835116859611888e-02  7.3835290968582976e-02  7.3835534157648861e-02  7.3835854778291812e-02  7.3836261701214725e-02  7.3836764639298391e-02  7.3837374527643551e-02  7.3838103926006010e-02  7.3838967399592489e-02  7.3839981826789317e-02  7.3841166577244946e-02  7.3842543500934152e-02  7.3844136668651375e-02  7.3845971808279356e-02  7.3848075389375406e-02  7.3850473322956897e-02  7.3853189264915034e-02  7.3856242541099959e-02  7.3859645749845743e-02  7.3863402142325327e-02  7.3867502929830867e-02  7.3871924715306611e-02  7.3876627287942032e-02  7.3881552046939344e-02  7.3886621325993565e-02  7.3891738866705220e-02  7.3896791632652073e-02  7.3901653065313613e-02  7.3906187762081688e-02  7.3910257414018368e-02  7.3913727693641199e-02  7.3916475653870217e-02  7.3918397106951333e-02  7.3919413405414636e-02  7.3919477036812939e-02  7.3918575465192288e-02  7.3916732732757631e-02  7.3914008512880602e-02  7.3910494579010264e-02  7.3906308972974122e-02  7.3901588449744260e-02  7.3896479982072244e-02  7.3891132189978517e-02  7.3885687507423248e-02  7.3880275729269626e-02  7.3875009336735756e-02  7.3869980732262877e-02  7.3865261275637945e-02  7.3860901837164303e-02  7.3856934484569481e-02  7.3853374893672857e-02  7.3850225102653919e-02  7.3847476296061990e-02  7.3845111388723655e-02  7.3843107266593502e-02  7.3841436621036358e-02  7.3840069378780751e-02  7.3838973778779057e-02  7.3838117178784926e-02  7.3837466689617368e-02  7.3836989735749689e-02  7.3836654629067522e-02  7.3836431219636081e-02  7.3836291652815245e-02  7.3836211213926917e-02  7.3836169176952363e-02  7.3836149493758899e-02  7.3836141083993043e-02  7.3836137470947652e-02  7.3836135656603338e-02  7.3836134602822026e-02  1.7859040001559606e-01  7.3836124020079205e-02  4.0005950453985681e-02  4.0005950315097093e-02  4.0005950049425990e-02  4.0005949612396403e-02  4.0005948964343480e-02  4.0005948090305728e-02  4.0005947031851057e-02  4.0005945934672389e-02  4.0005945111957722e-02  4.0005945121562664e-02  4.0005946853911428e-02  4.0005951626469562e-02  4.0005961279378735e-02  4.0005978265548130e-02  4.0006005727385351e-02  4.0006047551704046e-02  4.0006108394446203e-02  4.0006193667952022e-02  4.0006309485733194e-02  4.0006462563033800e-02  4.0006660075688968e-02  4.0006909484505054e-02  4.0007218337016114e-02  4.0007594062356072e-02  4.0008043777490704e-02  4.0008574123669274e-02  4.0009191150384343e-02  4.0009900260396754e-02  4.0010706223789654e-02  4.0011613262158317e-02  4.0012625196701103e-02  4.0013745647031904e-02  4.0014978261773616e-02  4.0016326957975461e-02  4.0017796144368740e-02  4.0019390903316562e-02  4.0021117107651362e-02  4.0022981450929335e-02  4.0024991372510116e-02  4.0027154862017432e-02  4.0029480130855846e-02  4.0031975142028269e-02  4.0034646993560463e-02  4.0037501155933242e-02  4.0040540570637946e-02  4.0043764625747234e-02  4.0047168035622138e-02  4.0050739665670118e-02  4.0054461359109617e-02  4.0058306840111899e-02  4.0062240784873138e-02  4.0066218166761203e-02  4.0070183990681969e-02  4.0074073531892164e-02  4.0077813182589614e-02  4.0081321983623769e-02  4.0084513877940549e-02  4.0087300668322196e-02  4.0089595599055512e-02  4.0091317415949214e-02  4.0092394696028474e-02  4.0092770180625195e-02  4.0092404790105882e-02  4.0091280947319931e-02  4.0089404818422172e-02  4.0086807132919754e-02  4.0083542380754435e-02  4.0079686376822882e-02  4.0075332388358718e-02  4.0070586195437768e-02  4.0065560568615807e-02  4.0060369684066982e-02  4.0055123954891018e-02  4.0049925652635605e-02  4.0044865552664254e-02  4.0040020691493726e-02  4.0035453198981004e-02  4.0031210077817451e-02  4.0027323750488827e-02  4.0023813174864240e-02  4.0020685335248975e-02  4.0017936937206497e-02  4.0015556164580968e-02  4.0013524390956443e-02  4.0011817772028599e-02  4.0010408677751907e-02  4.0009266951739890e-02  4.0008361008521093e-02  4.0007658795304719e-02  4.0007128652595224e-02  4.0006740106314949e-02  4.0006464612506544e-02  4.0006276254565432e-02  4.0006152364680990e-02  4.0006074011801021e-02  4.0006026278713039e-02  4.0005998253164941e-02  4.0005982677929618e-02  4.0005975126089173e-02  7.3836134731981778e-02  7.3836123478006138e-02  4.0005950287401344e-02  4.0005950046193929e-02  4.0005949596679892e-02  4.0005948882309024e-02  4.0005947866043758e-02  4.0005946558187434e-02  4.0005945043916122e-02  4.0005943515840595e-02  4.0005942315208411e-02  4.0005941982050652e-02  4.0005943312359127e-02  4.0005947419004755e-02  4.0005955792171199e-02  4.0005970354404959e-02  4.0005993504979694e-02  4.0006028148238622e-02  4.0006077701037243e-02  4.0006146075465564e-02  4.0006237634709133e-02  4.0006357122141525e-02  4.0006509566365415e-02  4.0006700167671855e-02  4.0006934173929483e-02  4.0007216755903144e-02  4.0007552893110365e-02  4.0007947281329885e-02  4.0008404271659442e-02  4.0008927848609245e-02  4.0009521651282146e-02  4.0010189037551845e-02  4.0010933186728895e-02  4.0011757232002232e-02  4.0012664410398344e-02  4.0013658215427010e-02  4.0014742536121709e-02  4.0015921765785480e-02  4.0017200864249883e-02  4.0018585358635922e-02  4.0020081269276260e-02  4.0021694949521916e-02  4.0023432830506495e-02  4.0025301064757463e-02  4.0027305065962256e-02  4.0029448946284685e-02  4.0031734857791379e-02  4.0034162250896413e-02  4.0036727070472018e-02  4.0039420919460195e-02  4.0042230230296599e-02  4.0045135495766299e-02  4.0048110622135764e-02  4.0051122477117909e-02  4.0054130711494169e-02  4.0057087933754225e-02  4.0059940309685051e-02  4.0062628641706947e-02  4.0065089954969435e-02  4.0067259579411853e-02  4.0069073673120535e-02  4.0070472088236976e-02  4.0071401439041233e-02  4.0071818195067076e-02  4.0071691581013688e-02  4.0071006018684380e-02  4.0069762824718753e-02  4.0067980917331963e-02  4.0065696387357318e-02  4.0062960925521258e-02  4.0059839236176759e-02  4.0056405682665878e-02  4.0052740485218785e-02  4.0048925819931233e-02  4.0045042145256428e-02  4.0041165018447719e-02  4.0037362574935439e-02  4.0033693748482778e-02  4.0030207226014060e-02  4.0026941068311749e-02  4.0023922889108388e-02  4.0021170467868017e-02  4.0018692670565410e-02  4.0016490562582732e-02  4.0014558614055486e-02  4.0012885917536385e-02  4.0011457358686692e-02  4.0010254701257728e-02  4.0009257566323418e-02  4.0008444300937709e-02  4.0007792741522406e-02  4.0007280881162580e-02  4.0006887447235115e-02  4.0006592387591799e-02  4.0006377253776731e-02  4.0006225466561594e-02  4.0006122464587394e-02  4.0006055780700892e-02  4.0006015148814932e-02  4.0005992722300529e-02  4.0005982876183017e-02  7.3836136369671929e-02  7.3836122486577727e-02  4.0005949957880232e-02  4.0005949529695294e-02  4.0005948776131041e-02  4.0005947640580276e-02  4.0005946097122172e-02  4.0005944185510026e-02  4.0005942038562260e-02  4.0005939905043260e-02  4.0005938173684745e-02  4.0005937400855909e-02  4.0005938341430076e-02  4.0005941980590452e-02  4.0005949563433223e-02  4.0005962618943097e-02  4.0005982975055650e-02  4.0006012762011461e-02  4.0006054402027792e-02  4.0006110584426539e-02  4.0006184226690042e-02  4.0006278423333069e-02  4.0006396385847971e-02  4.0006541378134898e-02  4.0006716652624272e-02  4.0006925392630482e-02  4.0007170666298913e-02  4.0007455396842063e-02  4.0007782352650463e-02  4.0008154159367738e-02  4.0008573334210332e-02  4.0009042340816051e-02  4.0009563660880709e-02  4.0010139876984117e-02  4.0010773759466302e-02  4.0011468349060796e-02  4.0012227026238981e-02  4.0013053557833557e-02  4.0013952111465023e-02  4.0014927228613939e-02  4.0015983747901579e-02  4.0017126671321970e-02  4.0018360967842490e-02  4.0019691310981834e-02  4.0021121749739381e-02  4.0022655315429943e-02  4.0024293570649669e-02  4.0026036110687412e-02  4.0027880032220582e-02  4.0029819389152045e-02  4.0031844660981857e-02  4.0033942265128977e-02  4.0036094150840668e-02  4.0038277518118046e-02  4.0040464709370616e-02  4.0042623322787053e-02  4.0044716593048639e-02  4.0046704075508040e-02  4.0048542652935226e-02  4.0050187859314787e-02  4.0051595487505490e-02  4.0052723423083532e-02  4.0053533625792531e-02  4.0053994164962504e-02  4.0054081184642633e-02  4.0053780621563069e-02  4.0053089466569519e-02  4.0052016389251911e-02  4.0050581626273750e-02  4.0048816129857279e-02  4.0046760057872513e-02  4.0044460751295773e-02  4.0041970386977335e-02  4.0039343512017482e-02  4.0036634658088502e-02  4.0033896201426368e-02  4.0031176585101309e-02  4.0028518966155793e-02  4.0025960301619895e-02  4.0023530850341764e-02  4.0021254043463766e-02  4.0019146663469091e-02  4.0017219266920284e-02  4.0015476786424767e-02  4.0013919251077293e-02  4.0012542570663473e-02  4.0011339336851144e-02  4.0010299603956544e-02  4.0009411621627737e-02  4.0008662500403587e-02  4.0008038796865507e-02  4.0007527006812559e-02  4.0007113952642399e-02  4.0006787047326228e-02  4.0006534418190395e-02  4.0006344890303636e-02  4.0006207876528498e-02  4.0006113308751576e-02  4.0006051852335620e-02  4.0006015650347969e-02  4.0005998915210228e-02  7.3836139549815910e-02  7.3836120842930078e-02  4.0005949383013502e-02  4.0005948660415548e-02  4.0005947468166547e-02  4.0005945771943108e-02  4.0005943572574740e-02  4.0005940948222657e-02  4.0005938085009712e-02  4.0005935296256602e-02  4.0005933036446388e-02  4.0005931913863195e-02  4.0005932702731548e-02  4.0005936353569846e-02  4.0005943999505501e-02  4.0005956956190712e-02  4.0005976713447446e-02  4.0006004917665698e-02  4.0006043345132650e-02  4.0006093867731490e-02  4.0006158413633142e-02  4.0006238926517404e-02  4.0006337327363126e-02  4.0006455482848938e-02  4.0006595183876940e-02  4.0006758136749462e-02  4.0006945968275545e-02  4.0007160244777275e-02  4.0007402503793518e-02  4.0007674296311337e-02  4.0007977236614256e-02  4.0008313056328418e-02  4.0008683658968432e-02  4.0009091171228639e-02  4.0009537987341887e-02  4.0010026802877276e-02  4.0010560634238690e-02  4.0011142819808700e-02  4.0011776998257330e-02  4.0012467059216204e-02  4.0013217061553356e-02  4.0014031115065372e-02  4.0014913222636034e-02  4.0015867081757334e-02  4.0016895846636084e-02  4.0018001854655205e-02  4.0019186323484286e-02  4.0020449027411760e-02  4.0021787963413047e-02  4.0023199019158920e-02  4.0024675656850583e-02  4.0026208628789368e-02  4.0027785743208477e-02  4.0029391702072738e-02  4.0031008035780150e-02  4.0032613161944952e-02  4.0034182595468079e-02  4.0035689333491623e-02  4.0037104429509092e-02  4.0038397755027773e-02  4.0039538931567122e-02  4.0040498408141181e-02  4.0041248656356089e-02  4.0041765462154558e-02  4.0042029264765369e-02  4.0042026417548469e-02  4.0041750194543986e-02  4.0041201395979296e-02  4.0040388484134201e-02  4.0039327253919378e-02  4.0038040089514178e-02  4.0036554884654650e-02  4.0034903721707378e-02  4.0033121417408619e-02  4.0031244046065034e-02  4.0029307539762325e-02  4.0027346442120006e-02  4.0025392864578957e-02  4.0023475669279496e-02  4.0021619884158352e-02  4.0019846344156673e-02  4.0018171545235681e-02  4.0016607692529862e-02  4.0015162918605220e-02  4.0013841642130850e-02  4.0012645032163945e-02  4.0011571540147194e-02  4.0010617461655393e-02  4.0009777492730790e-02  4.0009045249895299e-02  4.0008413726598920e-02  4.0007875660469316e-02  4.0007423785371199e-02  4.0007050942835042e-02  4.0006750035680792e-02  4.0006513834131445e-02  4.0006334706350781e-02  4.0006204453162310e-02  4.0006114576301668e-02  4.0006057429306179e-02  4.0006027947041521e-02  7.3836146047541809e-02  7.3836118235913947e-02  4.0005948446167165e-02  4.0005947304089171e-02  4.0005945527120002e-02  4.0005943133068309e-02  4.0005940168577621e-02  4.0005936762019106e-02  4.0005933160447017e-02  4.0005929749740855e-02  4.0005927064120934e-02  4.0005925789733346e-02  4.0005926764025597e-02  4.0005930970411822e-02  4.0005939526679968e-02  4.0005953665571255e-02  4.0005974706702800e-02  4.0006004020252568e-02  4.0006042984331067e-02  4.0006092939462050e-02  4.0006155144788925e-02  4.0006230741229047e-02  4.0006320726670257e-02  4.0006425947393981e-02  4.0006547108262742e-02  4.0006684802049622e-02  4.0006839556018928e-02  4.0007011891911325e-02  4.0007202394130012e-02  4.0007411780253417e-02  4.0007640967990123e-02  4.0007891133304940e-02  4.0008163755594961e-02  4.0008460647324870e-02  4.0008783967096152e-02  4.0009136216282923e-02  4.0009520219798263e-02  4.0009939091199632e-02  4.0010396181455084e-02  4.0010895009730721e-02  4.0011439173991019e-02  4.0012032239361506e-02  4.0012677603221372e-02  4.0013378337760398e-02  4.0014137012940466e-02  4.0014955505005195e-02  4.0015834797431288e-02  4.0016774782082348e-02  4.0017774068172474e-02  4.0018829805601834e-02  4.0019937527757496e-02  4.0021091017718197e-02  4.0022282201678763e-02  4.0023501074724681e-02  4.0024735666658304e-02  4.0025972058614745e-02  4.0027194463856983e-02  4.0028385387157341e-02  4.0029525873305161e-02  4.0030595844735617e-02  4.0031574523104956e-02  4.0032440939676395e-02  4.0033174553224762e-02  4.0033756029018423e-02  4.0034168193089283e-02  4.0034397048097928e-02  4.0034432660969933e-02  4.0034269784620290e-02  4.0033908175606599e-02  4.0033352631388686e-02  4.0032612785033714e-02  4.0031702686992791e-02  4.0030640201066260e-02  4.0029446253095222e-02  4.0028143985099754e-02  4.0026757872139787e-02  4.0025312851999117e-02  4.0023833505023816e-02  4.0022343310382201e-02  4.0020863999352466e-02  4.0019415025258361e-02  4.0018013169832174e-02  4.0016672303113433e-02  4.0015403306193992e-02  4.0014214153601783e-02  4.0013110137314331e-02  4.0012094201051417e-02  4.0011167344885461e-02  4.0010329057449619e-02  4.0009577734808510e-02  4.0008911048692676e-02  4.0008326230008238e-02  4.0007820235897135e-02  4.0007389772700880e-02  4.0007031159170509e-02  4.0006740043854357e-02  4.0006511050622591e-02  4.0006337532798968e-02  4.0006211797171461e-02  4.0006126469784437e-02  4.0006077735843797e-02  7.3836160240009649e-02  7.3836114205707903e-02  4.0005946989129702e-02  4.0005945299933156e-02  4.0005942792304724e-02  4.0005939570289271e-02  4.0005935747598101e-02  4.0005931516174140e-02  4.0005927192251947e-02  4.0005923240715176e-02  4.0005920284297260e-02  4.0005919102583033e-02  4.0005920622979009e-02  4.0005925903667416e-02  4.0005936107517993e-02  4.0005952466000277e-02  4.0005976233117996e-02  4.0006008631005348e-02  4.0006050790742494e-02  4.0006103693784732e-02  4.0006168120718402e-02  4.0006244614453165e-02  4.0006333464296773e-02  4.0006434715616275e-02  4.0006548207044329e-02  4.0006673633802170e-02  4.0006810632368599e-02  4.0006958879073469e-02  4.0007118193579203e-02  4.0007288637698195e-02  4.0007470600539302e-02  4.0007664862575114e-02  4.0007872633794919e-02  4.0008095564351913e-02  4.0008335729319215e-02  4.0008595591471525e-02  4.0008877946829009e-02  4.0009185857016467e-02  4.0009522570833810e-02  4.0009891435619054e-02  4.0010295797764765e-02  4.0010738891599305e-02  4.0011223716883100e-02  4.0011752907161580e-02  4.0012328593639762e-02  4.0012952271428169e-02  4.0013624676303199e-02  4.0014345679881304e-02  4.0015114209146406e-02  4.0015928192784857e-02  4.0016784532485195e-02  4.0017679093400954e-02  4.0018606705505340e-02  4.0019561167297060e-02  4.0020535245116513e-02  4.0021520664426678e-02  4.0022508093583042e-02  4.0023487125202678e-02  4.0024446260107642e-02  4.0025372891017909e-02  4.0026253291183214e-02  4.0027072647896456e-02  4.0027815212409334e-02  4.0028464718713429e-02  4.0029005147045410e-02  4.0029421672303514e-02  4.0029701531826556e-02  4.0029834668808509e-02  4.0029814163525808e-02  4.0029636519372261e-02  4.0029301844564630e-02  4.0028813920194278e-02  4.0028180122167266e-02  4.0027411180352489e-02  4.0026520788570226e-02  4.0025525098194292e-02  4.0024442129637794e-02  4.0023291128444098e-02  4.0022091887383093e-02  4.0020864058668490e-02  4.0019626489911912e-02  4.0018396627667867e-02  4.0017190036236418e-02  4.0016020072263445e-02  4.0014897737876427e-02  4.0013831710532403e-02  4.0012828523338949e-02  4.0011892852123948e-02  4.0011027858083754e-02  4.0010235536040530e-02  4.0009517024112602e-02  4.0008872837087546e-02  4.0008302991382021e-02  4.0007806995926237e-02  4.0007383695519844e-02  4.0007030977412303e-02  4.0006745396260562e-02  4.0006521855795743e-02  4.0006353673559293e-02  4.0006233875848958e-02  4.0006160034627376e-02  7.3836190981865654e-02  7.3836108112654023e-02  4.0005944804570703e-02  4.0005942458767159e-02  4.0005939093387254e-02  4.0005934932153042e-02  4.0005930178308620e-02  4.0005925102089279e-02  4.0005920097704623e-02  4.0005915714334692e-02  4.0005912668219082e-02  4.0005911840612161e-02  4.0005914263751552e-02  4.0005921095041967e-02  4.0005933578737482e-02  4.0005952994626365e-02  4.0005980594495567e-02  4.0006017529220644e-02  4.0006064771765805e-02  4.0006123043678891e-02  4.0006192754194633e-02  4.0006273961261572e-02  4.0006366362599584e-02  4.0006469322303860e-02  4.0006581934535573e-02  4.0006703121023258e-02  4.0006831754555973e-02  4.0006966797268305e-02  4.0007107440612047e-02  4.0007253233443188e-02  4.0007404185643504e-02  4.0007560837301177e-02  4.0007724287754655e-02  4.0007896184240235e-02  4.0008078675152950e-02  4.0008274336474144e-02  4.0008486080821526e-02  4.0008717056998280e-02  4.0008970544914382e-02  4.0009249847700962e-02  4.0009558180866163e-02  4.0009898558037160e-02  4.0010273674219950e-02  4.0010685790117587e-02  4.0011136624081636e-02  4.0011627260783639e-02  4.0012158086806394e-02  4.0012728762183848e-02  4.0013338233283201e-02  4.0013984786550938e-02  4.0014666135569178e-02  4.0015379527206310e-02  4.0016121848005785e-02  4.0016889710178763e-02  4.0017679497121664e-02  4.0018487350018124e-02  4.0019309080729162e-02  4.0020140002674946e-02  4.0020974672624485e-02  4.0021806528747879e-02  4.0022627442668560e-02  4.0023427280767188e-02  4.0024193620065998e-02  4.0024911935652045e-02  4.0025566399431639e-02  4.0026140970647293e-02  4.0026620332306605e-02  4.0026990522628890e-02  4.0027239379674492e-02  4.0027356956787656e-02  4.0027335975870063e-02  4.0027172270047269e-02  4.0026865116140870e-02  4.0026417386337255e-02  4.0025835505900845e-02  4.0025129240160932e-02  4.0024311338090181e-02  4.0023397047875352e-02  4.0022403512494947e-02  4.0021349061217820e-02  4.0020252434565258e-02  4.0019132005335530e-02  4.0018005073685255e-02  4.0016887310986078e-02  4.0015792404610430e-02  4.0014731919342655e-02  4.0013715352573379e-02  4.0012750332420549e-02  4.0011842896541375e-02  4.0010997792584067e-02  4.0010218752099716e-02  4.0009508701574721e-02  4.0008869883461501e-02  4.0008303867493732e-02  4.0007811442008337e-02  4.0007392388045133e-02  4.0007045155893227e-02  4.0006766499947374e-02  4.0006551277797370e-02  4.0006393265820207e-02  4.0006291047998514e-02  7.3836253170958460e-02  7.3836099116342341e-02  4.0005941631294548e-02  4.0005938561707026e-02  4.0005934253673894e-02  4.0005929078055412e-02  4.0005923350222072e-02  4.0005917434898390e-02  4.0005911814122601e-02  4.0005907126601986e-02  4.0005904185387395e-02  4.0005903977827773e-02  4.0005907649432834e-02  4.0005916471671607e-02  4.0005931793042224e-02  4.0005954973211140e-02  4.0005987301702524e-02  4.0006029905287392e-02  4.0006083651353039e-02  4.0006149057460645e-02  4.0006226219099827e-02  4.0006314767552544e-02  4.00064138679