<?xml version="1.0"?>
<VTKFile type="UnstructuredGrid"  version="0.1"  >
<UnstructuredGrid>
<Piece  NumberOfPoints="5151" NumberOfCells="10000">
<Points>
<DataArray  type="Float64"  NumberOfComponents="3"  format="ascii">0 0 0  0.02 0 0  0.04 0 0  0.06 0 0  0.08 0 0  0.1 0 0  0.12 0 0  0.14 0 0  0.16 0 0  0.18 0 0  0.2 0 0  0.22 0 0  0.24 0 0  0.26 0 0  0.28 0 0  0.3 0 0  0.32 0 0  0.34 0 0  0.36 0 0  0.38 0 0  0.4 0 0  0.42 0 0  0.44 0 0  0.46 0 0  0.48 0 0  0.5 0 0  0.52 0 0  0.54 0 0  0.5600000000000001 0 0  0.58 0 0  0.6 0 0  0.62 0 0  0.64 0 0  0.66 0 0  0.68 0 0  0.7 0 0  0.72 0 0  0.74 0 0  0.76 0 0  0.78 0 0  0.8 0 0  0.82 0 0  0.84 0 0  0.86 0 0  0.88 0 0  0.9 0 0  0.92 0 0  0.9399999999999999 0 0  0.96 0 0  0.98 0 0  1 0 0  1.02 0 0  1.04 0 0  1.06 0 0  1.08 0 0  1.1 0 0  1.12 0 0  1.14 0 0  1.16 0 0  1.18 0 0  1.2 0 0  1.22 0 0  1.24 0 0  1.26 0 0  1.28 0 0  1.3 0 0  1.32 0 0  1.34 0 0  1.36 0 0  1.38 0 0  1.4 0 0  1.42 0 0  1.44 0 0  1.46 0 0  1.48 0 0  1.5 0 0  1.52 0 0  1.54 0 0  1.56 0 0  1.58 0 0  1.6 0 0  1.62 0 0  1.64 0 0  1.66 0 0  1.68 0 0  1.7 0 0  1.72 0 0  1.74 0 0  1.76 0 0  1.78 0 0  1.8 0 0  1.82 0 0  1.84 0 0  1.86 0 0  1.88 0 0  1.9 0 0  1.92 0 0  1.94 0 0  1.96 0 0  1.98 0 0  2 0 0  0 0.02 0  0.02 0.02 0  0.04 0.02 0  0.06 0.02 0  0.08 0.02 0  0.1 0.02 0  0.12 0.02 0  0.14 0.02 0  0.16 0.02 0  0.18 0.02 0  0.2 0.02 0  0.22 0.02 0  0.24 0.02 0  0.26 0.02 0  0.28 0.02 0  0.3 0.02 0  0.32 0.02 0  0.34 0.02 0  0.36 0.02 0  0.38 0.02 0  0.4 0.02 0  0.42 0.02 0  0.44 0.02 0  0.46 0.02 0  0.48 0.02 0  0.5 0.02 0  0.52 0.02 0  0.54 0.02 0  0.5600000000000001 0.02 0  0.58 0.02 0  0.6 0.02 0  0.62 0.02 0  0.64 0.02 0  0.66 0.02 0  0.68 0.02 0  0.7 0.02 0  0.72 0.02 0  0.74 0.02 0  0.76 0.02 0  0.78 0.02 0  0.8 0.02 0  0.82 0.02 0  0.84 0.02 0  0.86 0.02 0  0.88 0.02 0  0.9 0.02 0  0.92 0.02 0  0.9399999999999999 0.02 0  0.96 0.02 0  0.98 0.02 0  1 0.02 0  1.02 0.02 0  1.04 0.02 0  1.06 0.02 0  1.08 0.02 0  1.1 0.02 0  1.12 0.02 0  1.14 0.02 0  1.16 0.02 0  1.18 0.02 0  1.2 0.02 0  1.22 0.02 0  1.24 0.02 0  1.26 0.02 0  1.28 0.02 0  1.3 0.02 0  1.32 0.02 0  1.34 0.02 0  1.36 0.02 0  1.38 0.02 0  1.4 0.02 0  1.42 0.02 0  1.44 0.02 0  1.46 0.02 0  1.48 0.02 0  1.5 0.02 0  1.52 0.02 0  1.54 0.02 0  1.56 0.02 0  1.58 0.02 0  1.6 0.02 0  1.62 0.02 0  1.64 0.02 0  1.66 0.02 0  1.68 0.02 0  1.7 0.02 0  1.72 0.02 0  1.74 0.02 0  1.76 0.02 0  1.78 0.02 0  1.8 0.02 0  1.82 0.02 0  1.84 0.02 0  1.86 0.02 0  1.88 0.02 0  1.9 0.02 0  1.92 0.02 0  1.94 0.02 0  1.96 0.02 0  1.98 0.02 0  2 0.02 0  0 0.04 0  0.02 0.04 0  0.04 0.04 0  0.06 0.04 0  0.08 0.04 0  0.1 0.04 0  0.12 0.04 0  0.14 0.04 0  0.16 0.04 0  0.18 0.04 0  0.2 0.04 0  0.22 0.04 0  0.24 0.04 0  0.26 0.04 0  0.28 0.04 0  0.3 0.04 0  0.32 0.04 0  0.34 0.04 0  0.36 0.04 0  0.38 0.04 0  0.4 0.04 0  0.42 0.04 0  0.44 0.04 0  0.46 0.04 0  0.48 0.04 0  0.5 0.04 0  0.52 0.04 0  0.54 0.04 0  0.5600000000000001 0.04 0  0.58 0.04 0  0.6 0.04 0  0.62 0.04 0  0.64 0.04 0  0.66 0.04 0  0.68 0.04 0  0.7 0.04 0  0.72 0.04 0  0.74 0.04 0  0.76 0.04 0  0.78 0.04 0  0.8 0.04 0  0.82 0.04 0  0.84 0.04 0  0.86 0.04 0  0.88 0.04 0  0.9 0.04 0  0.92 0.04 0  0.9399999999999999 0.04 0  0.96 0.04 0  0.98 0.04 0  1 0.04 0  1.02 0.04 0  1.04 0.04 0  1.06 0.04 0  1.08 0.04 0  1.1 0.04 0  1.12 0.04 0  1.14 0.04 0  1.16 0.04 0  1.18 0.04 0  1.2 0.04 0  1.22 0.04 0  1.24 0.04 0  1.26 0.04 0  1.28 0.04 0  1.3 0.04 0  1.32 0.04 0  1.34 0.04 0  1.36 0.04 0  1.38 0.04 0  1.4 0.04 0  1.42 0.04 0  1.44 0.04 0  1.46 0.04 0  1.48 0.04 0  1.5 0.04 0  1.52 0.04 0  1.54 0.04 0  1.56 0.04 0  1.58 0.04 0  1.6 0.04 0  1.62 0.04 0  1.64 0.04 0  1.66 0.04 0  1.68 0.04 0  1.7 0.04 0  1.72 0.04 0  1.74 0.04 0  1.76 0.04 0  1.78 0.04 0  1.8 0.04 0  1.82 0.04 0  1.84 0.04 0  1.86 0.04 0  1.88 0.04 0  1.9 0.04 0  1.92 0.04 0  1.94 0.04 0  1.96 0.04 0  1.98 0.04 0  2 0.04 0  0 0.06 0  0.02 0.06 0  0.04 0.06 0  0.06 0.06 0  0.08 0.06 0  0.1 0.06 0  0.12 0.06 0  0.14 0.06 0  0.16 0.06 0  0.18 0.06 0  0.2 0.06 0  0.22 0.06 0  0.24 0.06 0  0.26 0.06 0  0.28 0.06 0  0.3 0.06 0  0.32 0.06 0  0.34 0.06 0  0.36 0.06 0  0.38 0.06 0  0.4 0.06 0  0.42 0.06 0  0.44 0.06 0  0.46 0.06 0  0.48 0.06 0  0.5 0.06 0  0.52 0.06 0  0.54 0.06 0  0.5600000000000001 0.06 0  0.58 0.06 0  0.6 0.06 0  0.62 0.06 0  0.64 0.06 0  0.66 0.06 0  0.68 0.06 0  0.7 0.06 0  0.72 0.06 0  0.74 0.06 0  0.76 0.06 0  0.78 0.06 0  0.8 0.06 0  0.82 0.06 0  0.84 0.06 0  0.86 0.06 0  0.88 0.06 0  0.9 0.06 0  0.92 0.06 0  0.9399999999999999 0.06 0  0.96 0.06 0  0.98 0.06 0  1 0.06 0  1.02 0.06 0  1.04 0.06 0  1.06 0.06 0  1.08 0.06 0  1.1 0.06 0  1.12 0.06 0  1.14 0.06 0  1.16 0.06 0  1.18 0.06 0  1.2 0.06 0  1.22 0.06 0  1.24 0.06 0  1.26 0.06 0  1.28 0.06 0  1.3 0.06 0  1.32 0.06 0  1.34 0.06 0  1.36 0.06 0  1.38 0.06 0  1.4 0.06 0  1.42 0.06 0  1.44 0.06 0  1.46 0.06 0  1.48 0.06 0  1.5 0.06 0  1.52 0.06 0  1.54 0.06 0  1.56 0.06 0  1.58 0.06 0  1.6 0.06 0  1.62 0.06 0  1.64 0.06 0  1.66 0.06 0  1.68 0.06 0  1.7 0.06 0  1.72 0.06 0  1.74 0.06 0  1.76 0.06 0  1.78 0.06 0  1.8 0.06 0  1.82 0.06 0  1.84 0.06 0  1.86 0.06 0  1.88 0.06 0  1.9 0.06 0  1.92 0.06 0  1.94 0.06 0  1.96 0.06 0  1.98 0.06 0  2 0.06 0  0 0.08 0  0.02 0.08 0  0.04 0.08 0  0.06 0.08 0  0.08 0.08 0  0.1 0.08 0  0.12 0.08 0  0.14 0.08 0  0.16 0.08 0  0.18 0.08 0  0.2 0.08 0  0.22 0.08 0  0.24 0.08 0  0.26 0.08 0  0.28 0.08 0  0.3 0.08 0  0.32 0.08 0  0.34 0.08 0  0.36 0.08 0  0.38 0.08 0  0.4 0.08 0  0.42 0.08 0  0.44 0.08 0  0.46 0.08 0  0.48 0.08 0  0.5 0.08 0  0.52 0.08 0  0.54 0.08 0  0.5600000000000001 0.08 0  0.58 0.08 0  0.6 0.08 0  0.62 0.08 0  0.64 0.08 0  0.66 0.08 0  0.68 0.08 0  0.7 0.08 0  0.72 0.08 0  0.74 0.08 0  0.76 0.08 0  0.78 0.08 0  0.8 0.08 0  0.82 0.08 0  0.84 0.08 0  0.86 0.08 0  0.88 0.08 0  0.9 0.08 0  0.92 0.08 0  0.9399999999999999 0.08 0  0.96 0.08 0  0.98 0.08 0  1 0.08 0  1.02 0.08 0  1.04 0.08 0  1.06 0.08 0  1.08 0.08 0  1.1 0.08 0  1.12 0.08 0  1.14 0.08 0  1.16 0.08 0  1.18 0.08 0  1.2 0.08 0  1.22 0.08 0  1.24 0.08 0  1.26 0.08 0  1.28 0.08 0  1.3 0.08 0  1.32 0.08 0  1.34 0.08 0  1.36 0.08 0  1.38 0.08 0  1.4 0.08 0  1.42 0.08 0  1.44 0.08 0  1.46 0.08 0  1.48 0.08 0  1.5 0.08 0  1.52 0.08 0  1.54 0.08 0  1.56 0.08 0  1.58 0.08 0  1.6 0.08 0  1.62 0.08 0  1.64 0.08 0  1.66 0.08 0  1.68 0.08 0  1.7 0.08 0  1.72 0.08 0  1.74 0.08 0  1.76 0.08 0  1.78 0.08 0  1.8 0.08 0  1.82 0.08 0  1.84 0.08 0  1.86 0.08 0  1.88 0.08 0  1.9 0.08 0  1.92 0.08 0  1.94 0.08 0  1.96 0.08 0  1.98 0.08 0  2 0.08 0  0 0.1 0  0.02 0.1 0  0.04 0.1 0  0.06 0.1 0  0.08 0.1 0  0.1 0.1 0  0.12 0.1 0  0.14 0.1 0  0.16 0.1 0  0.18 0.1 0  0.2 0.1 0  0.22 0.1 0  0.24 0.1 0  0.26 0.1 0  0.28 0.1 0  0.3 0.1 0  0.32 0.1 0  0.34 0.1 0  0.36 0.1 0  0.38 0.1 0  0.4 0.1 0  0.42 0.1 0  0.44 0.1 0  0.46 0.1 0  0.48 0.1 0  0.5 0.1 0  0.52 0.1 0  0.54 0.1 0  0.5600000000000001 0.1 0  0.58 0.1 0  0.6 0.1 0  0.62 0.1 0  0.64 0.1 0  0.66 0.1 0  0.68 0.1 0  0.7 0.1 0  0.72 0.1 0  0.74 0.1 0  0.76 0.1 0  0.78 0.1 0  0.8 0.1 0  0.82 0.1 0  0.84 0.1 0  0.86 0.1 0  0.88 0.1 0  0.9 0.1 0  0.92 0.1 0  0.9399999999999999 0.1 0  0.96 0.1 0  0.98 0.1 0  1 0.1 0  1.02 0.1 0  1.04 0.1 0  1.06 0.1 0  1.08 0.1 0  1.1 0.1 0  1.12 0.1 0  1.14 0.1 0  1.16 0.1 0  1.18 0.1 0  1.2 0.1 0  1.22 0.1 0  1.24 0.1 0  1.26 0.1 0  1.28 0.1 0  1.3 0.1 0  1.32 0.1 0  1.34 0.1 0  1.36 0.1 0  1.38 0.1 0  1.4 0.1 0  1.42 0.1 0  1.44 0.1 0  1.46 0.1 0  1.48 0.1 0  1.5 0.1 0  1.52 0.1 0  1.54 0.1 0  1.56 0.1 0  1.58 0.1 0  1.6 0.1 0  1.62 0.1 0  1.64 0.1 0  1.66 0.1 0  1.68 0.1 0  1.7 0.1 0  1.72 0.1 0  1.74 0.1 0  1.76 0.1 0  1.78 0.1 0  1.8 0.1 0  1.82 0.1 0  1.84 0.1 0  1.86 0.1 0  1.88 0.1 0  1.9 0.1 0  1.92 0.1 0  1.94 0.1 0  1.96 0.1 0  1.98 0.1 0  2 0.1 0  0 0.12 0  0.02 0.12 0  0.04 0.12 0  0.06 0.12 0  0.08 0.12 0  0.1 0.12 0  0.12 0.12 0  0.14 0.12 0  0.16 0.12 0  0.18 0.12 0  0.2 0.12 0  0.22 0.12 0  0.24 0.12 0  0.26 0.12 0  0.28 0.12 0  0.3 0.12 0  0.32 0.12 0  0.34 0.12 0  0.36 0.12 0  0.38 0.12 0  0.4 0.12 0  0.42 0.12 0  0.44 0.12 0  0.46 0.12 0  0.48 0.12 0  0.5 0.12 0  0.52 0.12 0  0.54 0.12 0  0.5600000000000001 0.12 0  0.58 0.12 0  0.6 0.12 0  0.62 0.12 0  0.64 0.12 0  0.66 0.12 0  0.68 0.12 0  0.7 0.12 0  0.72 0.12 0  0.74 0.12 0  0.76 0.12 0  0.78 0.12 0  0.8 0.12 0  0.82 0.12 0  0.84 0.12 0  0.86 0.12 0  0.88 0.12 0  0.9 0.12 0  0.92 0.12 0  0.9399999999999999 0.12 0  0.96 0.12 0  0.98 0.12 0  1 0.12 0  1.02 0.12 0  1.04 0.12 0  1.06 0.12 0  1.08 0.12 0  1.1 0.12 0  1.12 0.12 0  1.14 0.12 0  1.16 0.12 0  1.18 0.12 0  1.2 0.12 0  1.22 0.12 0  1.24 0.12 0  1.26 0.12 0  1.28 0.12 0  1.3 0.12 0  1.32 0.12 0  1.34 0.12 0  1.36 0.12 0  1.38 0.12 0  1.4 0.12 0  1.42 0.12 0  1.44 0.12 0  1.46 0.12 0  1.48 0.12 0  1.5 0.12 0  1.52 0.12 0  1.54 0.12 0  1.56 0.12 0  1.58 0.12 0  1.6 0.12 0  1.62 0.12 0  1.64 0.12 0  1.66 0.12 0  1.68 0.12 0  1.7 0.12 0  1.72 0.12 0  1.74 0.12 0  1.76 0.12 0  1.78 0.12 0  1.8 0.12 0  1.82 0.12 0  1.84 0.12 0  1.86 0.12 0  1.88 0.12 0  1.9 0.12 0  1.92 0.12 0  1.94 0.12 0  1.96 0.12 0  1.98 0.12 0  2 0.12 0  0 0.14 0  0.02 0.14 0  0.04 0.14 0  0.06 0.14 0  0.08 0.14 0  0.1 0.14 0  0.12 0.14 0  0.14 0.14 0  0.16 0.14 0  0.18 0.14 0  0.2 0.14 0  0.22 0.14 0  0.24 0.14 0  0.26 0.14 0  0.28 0.14 0  0.3 0.14 0  0.32 0.14 0  0.34 0.14 0  0.36 0.14 0  0.38 0.14 0  0.4 0.14 0  0.42 0.14 0  0.44 0.14 0  0.46 0.14 0  0.48 0.14 0  0.5 0.14 0  0.52 0.14 0  0.54 0.14 0  0.5600000000000001 0.14 0  0.58 0.14 0  0.6 0.14 0  0.62 0.14 0  0.64 0.14 0  0.66 0.14 0  0.68 0.14 0  0.7 0.14 0  0.72 0.14 0  0.74 0.14 0  0.76 0.14 0  0.78 0.14 0  0.8 0.14 0  0.82 0.14 0  0.84 0.14 0  0.86 0.14 0  0.88 0.14 0  0.9 0.14 0  0.92 0.14 0  0.9399999999999999 0.14 0  0.96 0.14 0  0.98 0.14 0  1 0.14 0  1.02 0.14 0  1.04 0.14 0  1.06 0.14 0  1.08 0.14 0  1.1 0.14 0  1.12 0.14 0  1.14 0.14 0  1.16 0.14 0  1.18 0.14 0  1.2 0.14 0  1.22 0.14 0  1.24 0.14 0  1.26 0.14 0  1.28 0.14 0  1.3 0.14 0  1.32 0.14 0  1.34 0.14 0  1.36 0.14 0  1.38 0.14 0  1.4 0.14 0  1.42 0.14 0  1.44 0.14 0  1.46 0.14 0  1.48 0.14 0  1
[...]
<PointData  Scalars="sols[i]"> 
<DataArray  type="Float64"  Name="sols[i]"  format="ascii">4.2896059243398739e-02  2.9041558339773926e-02  2.9041558413322028e-02  2.9041558557565669e-02  2.9041558815568816e-02  2.9041559254084293e-02  2.9041559968718777e-02  2.9041561088525878e-02  2.9041562782483252e-02  2.9041565271267313e-02  2.9041568848792314e-02  2.9041573920131899e-02  2.9041581066766867e-02  2.9041591158265177e-02  2.9041605544899499e-02  2.9041626394219457e-02  2.9041657286262415e-02  2.9041704270793736e-02  2.9041777729214589e-02  2.9041895574860171e-02  2.9042088524826280e-02  2.9042408249416035e-02  2.9042938861862311e-02  2.9043810991522968e-02  2.9045215099591688e-02  2.9047406676262877e-02  2.9050691681139884e-02  2.9055379369677423e-02  2.9061696727120969e-02  2.9069677713355235e-02  2.9079065733307648e-02  2.9089277494098453e-02  2.9099457143119640e-02  2.9108618074577909e-02  2.9115834124850207e-02  2.9120413711672656e-02  2.9122001101790300e-02  2.9120596236850455e-02  2.9116519296371452e-02  2.9110340230329414e-02  2.9102774955105971e-02  2.9094560897468397e-02  2.9086346880586207e-02  2.9078624482193387e-02  2.9071706125016424e-02  2.9065740431656960e-02  2.9060749143755407e-02  2.9056670021220615e-02  2.9053395122934297e-02  2.9050799705086363e-02  2.9048761045296342e-02  2.9047168763991400e-02  2.9045929067503643e-02  2.9044965211897918e-02  2.9044215958247091e-02  2.9043633215292831e-02  2.9043179570935898e-02  2.9042826058791330e-02  2.9042550288065547e-02  2.9042334946819185e-02  2.9042166634321805e-02  2.9042034962169044e-02  2.9041931865922965e-02  2.9041851077885216e-02  2.9041787722170843e-02  2.9041738002481710e-02  2.9041698960648645e-02  2.9041668289378708e-02  2.9041644186988229e-02  2.9041625244701084e-02  2.9041610359376916e-02  2.9041598665955754e-02  2.9041589485305573e-02  2.9041582283876322e-02  2.9041576642454024e-02  2.9041572231787632e-02  2.9041568793412624e-02  2.9041566124367080e-02  2.9041564064922601e-02  2.9041562488726188e-02  2.9041561294999154e-02  2.9041560402554900e-02  2.9041559745402859e-02  2.9041559269674388e-02  2.9041558931518177e-02  2.9041558695619297e-02  2.9041558534044064e-02  2.9041558425206580e-02  2.9041558352872702e-02  2.9041558305185580e-02  2.9041558273750042e-02  2.9041558252813012e-02  2.9041558238569853e-02  2.9041558228603676e-02  2.9041558221446884e-02  2.9041558216248632e-02  2.9041558212522217e-02  2.9041558209963361e-02  2.9041558208340330e-02  2.9041558207482061e-02  8.1722641338721674e-02  2.9041558337572722e-02  1.4739374699811252e-02  1.4739374738511607e-02  1.4739374815080680e-02  1.4739374949366290e-02  1.4739375171361325e-02  1.4739375524035285e-02  1.4739376066704233e-02  1.4739376879916426e-02  1.4739378073656899e-02  1.4739379801508936e-02  1.4739382284769040e-02  1.4739385852982380e-02  1.4739391011960597e-02  1.4739398559069210e-02  1.4739409782304858e-02  1.4739426811312975e-02  1.4739453245771160e-02  1.4739495282895089e-02  1.4739563710200295e-02  1.4739677307284874e-02  1.4739868334406010e-02  1.4740190681492337e-02  1.4740730553534188e-02  1.4741617813436452e-02  1.4743033011813653e-02  1.4745201269038791e-02  1.4748361870445800e-02  1.4752706222693028e-02  1.4758291269869835e-02  1.4764958343982780e-02  1.4772298064362810e-02  1.4779685509956165e-02  1.4786386076577746e-02  1.4791704285152710e-02  1.4795120245313421e-02  1.4796365463698695e-02  1.4795433540082496e-02  1.4792552733341673e-02  1.4788137684946632e-02  1.4782714925692830e-02  1.4776827840109677e-02  1.4770952095462657e-02  1.4765444403858635e-02  1.4760527533527509e-02  1.4756303418943620e-02  1.4752782011153712e-02  1.4749913731939051e-02  1.4747617685583796e-02  1.4745802480818204e-02  1.4744379459219288e-02  1.4743269687407986e-02  1.4742406617680327e-02  1.4741736133351764e-02  1.4741215253890553e-02  1.4740810342074723e-02  1.4740495291765724e-02  1.4740249919819454e-02  1.4740058636848121e-02  1.4739909392979450e-02  1.4739792860400343e-02  1.4739701806525268e-02  1.4739630615119079e-02  1.4739574919952297e-02  1.4739531323508668e-02  1.4739497180111623e-02  1.4739470428111547e-02  1.4739449459731135e-02  1.4739433020035924e-02  1.4739420128538579e-02  1.4739410018430769e-02  1.4739402089533659e-02  1.4739395871889254e-02  1.4739390997560026e-02  1.4739387178710695e-02  1.4739384190455437e-02  1.4739381857294263e-02  1.4739380042261444e-02  1.4739378638175654e-02  1.4739377560605362e-02  1.4739376742322457e-02  1.4739376129094095e-02  1.4739375676657351e-02  1.4739375348667542e-02  1.4739375115354079e-02  1.4739374952608839e-02  1.4739374841279629e-02  1.4739374766521374e-02  1.4739374717144062e-02  1.4739374684957871e-02  1.4739374664146241e-02  1.4739374650701426e-02  1.4739374641945888e-02  1.4739374636147494e-02  1.4739374632222925e-02  1.4739374629517545e-02  1.4739374627645560e-02  1.4739374626377094e-02  1.4739374625564197e-02  1.4739374625105531e-02  2.9041558207448324e-02  2.9041558403865183e-02  1.4739374735185180e-02  1.4739374788716024e-02  1.4739374889596549e-02  1.4739375057794921e-02  1.4739375322216728e-02  1.4739375723891088e-02  1.4739376321886533e-02  1.4739377203141722e-02  1.4739378498690975e-02  1.4739380410488938e-02  1.4739383255485640e-02  1.4739387537497976e-02  1.4739394064272854e-02  1.4739404140216494e-02  1.4739419891542874e-02  1.4739444833874436e-02  1.4739484897131871e-02  1.4739550315932054e-02  1.4739659116964298e-02  1.4739843398515062e-02  1.4740160095371851e-02  1.4740708078453103e-02  1.4741652424027498e-02  1.4743253192531594e-02  1.4745888811168114e-02  1.4750053511078231e-02  1.4756299032614155e-02  1.4765095196863479e-02  1.4776618729240396e-02  1.4790548821735510e-02  1.4805979966554528e-02  1.4821505824124998e-02  1.4835475927319814e-02  1.4846361537043792e-02  1.4853076775337372e-02  1.4855122805826498e-02  1.4852569435573207e-02  1.4845976049016925e-02  1.4836294679351490e-02  1.4824705483047559e-02  1.4812387842178386e-02  1.4800329553775879e-02  1.4789229510614265e-02  1.4779485638409575e-02  1.4771241453908540e-02  1.4764460422138918e-02  1.4758999811693119e-02  1.4754669181096658e-02  1.4751270236609717e-02  1.4748619873058252e-02  1.4746560574786891e-02  1.4744962861216446e-02  1.4743723407084290e-02  1.4742761260195898e-02  1.4742013652144760e-02  1.4741432151813590e-02  1.4740979434846875e-02  1.4740626708459896e-02  1.4740351718770292e-02  1.4740137228980970e-02  1.4739969862583031e-02  1.4739839223424166e-02  1.4739737223111147e-02  1.4739657564010671e-02  1.4739595339983695e-02  1.4739546726890550e-02  1.4739508742213768e-02  1.4739479058334008e-02  1.4739455857596560e-02  1.4739437719949842e-02  1.4739423535918950e-02  1.4739412439190459e-02  1.4739403754279430e-02  1.4739396955698272e-02  1.4739391635810541e-02  1.4739387479194111e-02  1.4739384241917329e-02  1.4739381734665770e-02  1.4739379809111570e-02  1.4739378347225987e-02  1.4739377253345084e-02  1.4739376448712179e-02  1.4739375868030480e-02  1.4739375457401595e-02  1.4739375173014314e-02  1.4739374980088312e-02  1.4739374851791357e-02  1.4739374768051039e-02  1.4739374714310239e-02  1.4739374680323377e-02  1.4739374659080588e-02  1.4739374645910906e-02  1.4739374637777681e-02  1.4739374632751597e-02  1.4739374629633949e-02  1.4739374627696818e-02  1.4739374626509255e-02  1.4739374625820981e-02  1.4739374625472637e-02  2.9041558208152220e-02  2.9041558530589900e-02  1.4739374803210959e-02  1.4739374879967173e-02  1.4739375016202734e-02  1.4739375233710142e-02  1.4739375564817574e-02  1.4739376057295420e-02  1.4739376785364102e-02  1.4739377869193299e-02  1.4739379507590229e-02  1.4739382031960166e-02  1.4739385994233613e-02  1.4739392308204598e-02  1.4739402474732561e-02  1.4739418941735026e-02  1.4739445692391301e-02  1.4739489247510153e-02  1.4739560466856413e-02  1.4739677937792897e-02  1.4739874487583512e-02  1.4740209572423710e-02  1.4740791901355301e-02  1.4741817948355444e-02  1.4743631043148155e-02  1.4746798833064439e-02  1.4752189394958501e-02  1.4760996120494254e-02  1.4774627344164072e-02  1.4794370910911705e-02  1.4820825664159621e-02  1.4853323005401726e-02  1.4889676439135198e-02  1.4926377076743789e-02  1.4959260059970832e-02  1.4984515786286838e-02  1.4999564068371361e-02  1.5003358048206948e-02  1.4996224839837436e-02  1.4979634143985062e-02  1.4956012897285846e-02  1.4928337368588063e-02  1.4899487197051524e-02  1.4871759656155611e-02  1.4846678294756686e-02  1.4825017107753555e-02  1.4806956112988566e-02  1.4792287719516694e-02  1.4780599988467470e-02  1.4771408696016874e-02  1.4764240547586276e-02  1.4758676240756937e-02  1.4754365579014474e-02  1.4751026940360403e-02  1.4748439229372011e-02  1.4746431199052834e-02  1.4744871057451252e-02  1.4743657567266581e-02  1.4742712874489736e-02  1.4741976955388930e-02  1.4741403405041960e-02  1.4740956255878099e-02  1.4740607573351661e-02  1.4740335631846922e-02  1.4740123519464014e-02  1.4739958063551162e-02  1.4739828999413319e-02  1.4739728324750108e-02  1.4739649797632828e-02  1.4739588546395102e-02  1.4739540766877128e-02  1.4739503487808517e-02  1.4739474389182111e-02  1.4739451661577353e-02  1.4739433896897514e-02  1.4739420002985733e-02  1.4739409136171326e-02  1.4739400647139562e-02  1.4739394036773816e-02  1.4739388919834560e-02  1.4739384995407549e-02  1.4739382023769175e-02  1.4739379809503430e-02  1.4739378190359372e-02  1.4739377030721890e-02  1.4739376218103815e-02  1.4739375661057860e-02  1.4739375287329704e-02  1.4739375041671613e-02  1.4739374883249189e-02  1.4739374782860195e-02  1.4739374720253887e-02  1.4739374681773798e-02  1.4739374658436191e-02  1.4739374644458202e-02  1.4739374636186965e-02  1.4739374631355140e-02  1.4739374628583395e-02  1.4739374627058840e-02  1.4739374626323926e-02  1.4739374626084406e-02  2.9041558209415067e-02  2.9041558749436390e-02  1.4739374917762010e-02  1.4739375024497035e-02  1.4739375206419653e-02  1.4739375490496916e-02  1.4739375919826096e-02  1.4739376563187512e-02  1.4739377536410709e-02  1.4739379040806695e-02  1.4739381428854191e-02  1.4739385314060004e-02  1.4739391750992203e-02  1.4739402523921523e-02  1.4739420600658224e-02  1.4739450839024353e-02  1.4739501097157432e-02  1.4739584047939914e-02  1.4739720352496294e-02  1.4739944648322385e-02  1.4740317459442083e-02  1.4740949155263028e-02  1.4742046734585450e-02  1.4743999484628964e-02  1.4747521265872374e-02  1.4753855684748672e-02  1.4765010742013080e-02  1.4783908555629329e-02  1.4814220904530119e-02  1.4859586363988002e-02  1.4922048111692163e-02  1.5000351213556541e-02  1.5089186081234468e-02  1.5179547800097552e-02  1.5260419787032707e-02  1.5321732525741226e-02  1.5356983351510225e-02  1.5363904054488075e-02  1.5343685935391982e-02  1.5300299012152803e-02  1.5240259431183997e-02  1.5171524808735305e-02  1.5101449025130172e-02  1.5035515126212656e-02  1.4977052893036264e-02  1.4927474861220811e-02  1.4886788761408953e-02  1.4854182732720121e-02  1.4828480852604789e-02  1.4808435251656583e-02  1.4792895057260443e-02  1.4780880480097906e-02  1.4771595878550611e-02  1.4764414455492057e-02  1.4758851509276560e-02  1.4754535367211559e-02  1.4751181731103484e-02  1.4748572960470678e-02  1.4746541910312681e-02  1.4744959726244542e-02  1.4743726747590566e-02  1.4742765679881153e-02  1.4742016453367941e-02  1.4741432329036793e-02  1.4740976913904975e-02  1.4740621857134475e-02  1.4740345065055754e-02  1.4740129312642857e-02  1.4739961162736381e-02  1.4739830126423497e-02  1.4739728011807672e-02  1.4739648419769182e-02  1.4739586354017297e-02  1.4739537919278740e-02  1.4739500086940215e-02  1.4739470511822443e-02  1.4739447387113146e-02  1.4739429327329818e-02  1.4739415271973142e-02  1.4739404405401552e-02  1.4739396091088980e-02  1.4739389820193880e-02  1.4739385174700064e-02  1.4739381804219385e-02  1.4739379413630497e-02  1.4739377757376458e-02  1.4739376636311445e-02  1.4739375894279014e-02  1.4739375413279528e-02  1.4739375107384064e-02  1.4739374916166529e-02  1.4739374798464502e-02  1.4739374727016712e-02  1.4739374684203669e-02  1.4739374658871530e-02  1.4739374644081704e-02  1.4739374635584593e-02  1.4739374630822808e-02  1.4739374628302264e-02  1.4739374627193354e-02  1.4739374626972598e-02  2.9041558211251164e-02  2.9041559104730094e-02  1.4739375097256195e-02  1.4739375236676948e-02  1.4739375473438503e-02  1.4739375845429455e-02  1.4739376417750175e-02  1.4739377302756668e-02  1.4739378701920207e-02  1.4739380981360775e-02  1.4739384803509774e-02  1.4739391351313098e-02  1.4739402700402023e-02  1.4739422419415567e-02  1.4739456510058955e-02  1.4739514842114916e-02  1.4739613319757200e-02  1.4739777218811076e-02  1.4740046691452329e-02  1.4740486881652982e-02  1.4741208486249383e-02  1.4742411611016259e-02  1.4744478192243223e-02  1.4748155759918119e-02  1.4754890247184623e-02  1.4767355018001457e-02  1.4790144587011476e-02  1.4830403921967852e-02  1.4897815987956153e-02  1.5002984848472043e-02  1.5153161693988185e-02  1.5347053944108209e-02  1.5572361724017996e-02  1.5805620756446499e-02  1.6015848716545707e-02  1.6173850571001392e-02  1.6261387636956358e-02  1.6273088079806975e-02  1.6213072752995168e-02  1.6092752579085625e-02  1.5931284810152577e-02  1.5751992344108418e-02  1.5574753912067465e-02  1.5412792069069512e-02  1.5272999681487898e-02  1.5157251950018704e-02  1.5064152770275617e-02  1.4990746696480598e-02  1.4933618513793573e-02  1.4889483702682303e-02  1.4855495316846132e-02  1.4829333735777340e-02  1.4809171071959084e-02  1.4793598618255768e-02  1.4781544448476460e-02  1.4772194797790190e-02  1.4764930857742057e-02  1.4759280542075882e-02  1.4754881768859215e-02  1.4751455450315577e-02  1.4748785715901155e-02  1.4746705097129307e-02  1.4745083409703850e-02  1.4743819357139920e-02  1.4742834072605611e-02  1.4742066124697310e-02  1.4741467648139184e-02  1.4741001329363217e-02  1.4740638059519862e-02  1.4740355113575326e-02  1.4740134739436127e-02  1.4739963066867839e-02  1.4739829265000256e-02  1.4739724890880882e-02  1.4739643383895905e-02  1.4739579670532112e-02  1.4739529850927633e-02  1.4739490944613172e-02  1.4739460679067970e-02  1.4739437311618220e-02  1.4739419481857224e-02  1.4739406096283821e-02  1.4739396247446579e-02  1.4739389166138595e-02  1.4739384199305487e-02  1.4739380802456514e-02  1.4739378535933732e-02  1.4739377058389357e-02  1.4739376115501013e-02  1.4739375525185923e-02  1.4739375161772291e-02  1.4739374941304895e-02  1.4739374809262688e-02  1.4739374731082422e-02  1.4739374685290622e-02  1.4739374658767576e-02  1.4739374643612645e-02  1.4739374635140860e-02  1.4739374630643429e-02  1.4739374628627381e-02  1.4739374628195769e-02  2.9041558213671010e-02  2.9041559650899100e-02  1.4739375363907082e-02  1.4739375532217006e-02  1.4739375831384710e-02  1.4739376319880960e-02  1.4739377102735103e-02  1.4739378373284021e-02  1.4739380494345212e-02  1.4739384145680552e-02  1.4739390586456945e-02  1.4739402111524112e-02  1.4739422822568991e-02  1.4739459889204646e-02  1.4739525535958984e-02  1.4739640051988552e-02  1.4739836192093039e-02  1.4740165520142252e-02  1.4740707917709331e-02  1.4741587710956440e-02  1.4743006137670650e-02  1.4745314923849975e-02  1.4749186497921216e-02  1.4755988071089115e-02  1.4768530258378720e-02  1.4792388719723127e-02  1.4837883099053061e-02  1.4922400801821886e-02  1.5071867007891170e-02  1.5318769620665605e-02  1.5691191144764142e-02  1.6196659379308944e-02  1.6813315102540183e-02  1.7480955834509398e-02  1.8101625914195407e-02  1.8571670904855061e-02  1.8824227252709359e-02  1.8840858172931203e-02  1.8637087917227329e-02  1.8252740476322336e-02  1.7757482499722026e-02  1.7234499862102463e-02  1.6744133433856216e-02  1.6317494142335798e-02  1.5965026018994733e-02  1.5683903384020696e-02  1.5464496255150633e-02  1.5295532355020458e-02  1.5166396840090097e-02  1.5067939485690574e-02  1.4992811241960001e-02  1.4935345665047761e-02  1.4891236753524819e-02  1.4857255112257998e-02  1.4830993124571963e-02  1.4810644834414587e-02  1.4794847226769773e-02  1.4782565972796098e-02  1.4773009724887222e-02  1.4765569292277259e-02  1.4759774064946161e-02  1.4755259218821593e-02  1.4751741305260923e-02  1.4748999948894207e-02  1.4746863693203865e-02  1.4745199062276327e-02  1.4743902114382904e-02  1.4742891851972965e-02  1.4742105096039891e-02  1.4741492522272937e-02  1.4741015594246830e-02  1.4740644195954472e-02  1.4740354807893815e-02  1.4740129098269677e-02  1.4739952830432390e-02  1.4739815009363980e-02  1.4739707203985456e-02  1.4739622994247486e-02  1.4739557505847585e-02  1.4739507012303234e-02  1.4739468601295528e-02  1.4739439914110026e-02  1.4739418968103140e-02  1.4739404060490060e-02  1.4739393733685192e-02  1.4739386771448478e-02  1.4739382198090109e-02  1.4739379265424065e-02  1.4739377425151837e-02  1.4739376292140567e-02  1.4739375605939256e-02  1.4739375196126541e-02  1.4739374954273944e-02  1.4739374812995353e-02  1.4739374731216120e-02  1.4739374684295238e-02  1.4739374657648782e-02  1.4739374642761186e-02  1.4739374634761469e-02  1.4739374630975105e-02  1.4739374629882116e-02  2.9041558216721504e-02  2.9041560445988601e-02  1.4739375741776622e-02  1.4739375927850093e-02  1.4739376296739447e-02  1.4739376943587000e-02  1.4739378042860313e-02  1.4739379931951933e-02  1.4739383265752566e-02  1.4739389301257956e-02  1.4739400415572404e-02  1.4739421027255263e-02  1.4739459188412627e-02  1.4739529242299459e-02  1.4739656080195982e-02  1.4739881634909399e-02  1.4740274249258160e-02  1.4740941464846523e-02  1.4742047022833467e-02  1.4743835248595927e-02  1.4746675676702528e-02  1.4751169665054067e-02  1.4758430722962873e-02  1.4770789584295990e-02  1.4793391884850859e-02  1.4837375454717437e-02  1.4925314817170885e-02  1.5099211291229665e-02  1.5430005139884059e-02  1.6025391943686157e-02  1.7011416050791140e-02  1.8490210587684481e-02  2.0518195904240373e-02  2.3021107991927550e-02  2.5642735873785290e-02  2.7781061994703538e-02  2.8933921805464172e-02  2.8935601825241630e-02  2.7885454718128758e-02  2.6040917954958033e-02  2.3850838939225214e-02  2.1786460912260257e-02  2.0070248063219484e-02  1.8729004761810771e-02  1.7715919130818446e-02  1.6964145319202519e-02  1.6408923126060095e-02  1.5998820186744506e-02  1.5695070363208743e-02  1.5468649566294053e-02  1.5298611137351660e-02  1.5170023789760704e-02  1.5072099782781036e-02  1.4997067911302484e-02  1.4939312125647379e-02  1.4894694383879496e-02  1.4860132138610985e-02  1.4833311478865402e-02  1.4812472584261632e-02  1.4796266672896356e-02  1.4783656467404422e-02  1.4773840190608616e-02  1.4766196317894581e-02  1.4760242835886051e-02  1.4755605436726436e-02  1.4751993139859192e-02  1.4749179653078259e-02  1.4746988796317851e-02  1.4745283211114684e-02  1.4743955689203525e-02  1.4742922474190944e-02  1.4742118105543985e-02  1.4741491461389578e-02  1.4741002705202438e-02  1.4740620920356745e-02  1.4740322265565053e-02  1.4740088509778621e-02  1.4739905829512893e-02  1.4739763782498642e-02  1.4739654413619394e-02  1.4739571494419989e-02  1.4739509929775626e-02  1.4739465367892127e-02  1.4739434014287112e-02  1.4739412594387061e-02  1.4739398378591980e-02  1.4739389197276916e-02  1.4739383412030580e-02  1.4739379845086404e-02  1.4739377686675895e-02  1.4739376401168165e-02  1.4739375645672691e-02  1.4739375206574671e-02  1.4739374953735158e-02  1.4739374809301627e-02  1.4739374727387757e-02  1.4739374681283553e-02  1.4739374655625553e-02  1.4739374641720662e-02  1.4739374634809073e-02  1.4739374632305496e-02  2.9041558220641209e-02  2.9041561543080019e-02  1.4739376253931055e-02  1.4739376441047081e-02  1.4739376890853285e-02  1.4739377761132422e-02  1.4739379344328545e-02  1.4739382227170800e-02  1.4739387578798269e-02  1.4739397691366795e-02  1.4739416987481218e-02  1.4739453856751803e-02  1.4739523911441309e-02  1.4739655564679027e-02  1.4739899195875074e-02  1.4740341437844973e-02  1.4741125996970422e-02  1.4742481473984916e-02  1.4744754813382319e-02  1.4748448328249097e-02  1.4754267713233963e-02  1.4763234294082980e-02  1.47770568139