<?xml version="1.0"?>
<VTKFile type="UnstructuredGrid"  version="0.1"  >
<UnstructuredGrid>
<Piece  NumberOfPoints="5151" NumberOfCells="10000">
<Points>
<DataArray  type="Float64"  NumberOfComponents="3"  format="ascii">0 0 0  0.02 0 0  0.04 0 0  0.06 0 0  0.08 0 0  0.1 0 0  0.12 0 0  0.14 0 0  0.16 0 0  0.18 0 0  0.2 0 0  0.22 0 0  0.24 0 0  0.26 0 0  0.28 0 0  0.3 0 0  0.32 0 0  0.34 0 0  0.36 0 0  0.38 0 0  0.4 0 0  0.42 0 0  0.44 0 0  0.46 0 0  0.48 0 0  0.5 0 0  0.52 0 0  0.54 0 0  0.5600000000000001 0 0  0.58 0 0  0.6 0 0  0.62 0 0  0.64 0 0  0.66 0 0  0.68 0 0  0.7 0 0  0.72 0 0  0.74 0 0  0.76 0 0  0.78 0 0  0.8 0 0  0.82 0 0  0.84 0 0  0.86 0 0  0.88 0 0  0.9 0 0  0.92 0 0  0.9399999999999999 0 0  0.96 0 0  0.98 0 0  1 0 0  1.02 0 0  1.04 0 0  1.06 0 0  1.08 0 0  1.1 0 0  1.12 0 0  1.14 0 0  1.16 0 0  1.18 0 0  1.2 0 0  1.22 0 0  1.24 0 0  1.26 0 0  1.28 0 0  1.3 0 0  1.32 0 0  1.34 0 0  1.36 0 0  1.38 0 0  1.4 0 0  1.42 0 0  1.44 0 0  1.46 0 0  1.48 0 0  1.5 0 0  1.52 0 0  1.54 0 0  1.56 0 0  1.58 0 0  1.6 0 0  1.62 0 0  1.64 0 0  1.66 0 0  1.68 0 0  1.7 0 0  1.72 0 0  1.74 0 0  1.76 0 0  1.78 0 0  1.8 0 0  1.82 0 0  1.84 0 0  1.86 0 0  1.88 0 0  1.9 0 0  1.92 0 0  1.94 0 0  1.96 0 0  1.98 0 0  2 0 0  0 0.02 0  0.02 0.02 0  0.04 0.02 0  0.06 0.02 0  0.08 0.02 0  0.1 0.02 0  0.12 0.02 0  0.14 0.02 0  0.16 0.02 0  0.18 0.02 0  0.2 0.02 0  0.22 0.02 0  0.24 0.02 0  0.26 0.02 0  0.28 0.02 0  0.3 0.02 0  0.32 0.02 0  0.34 0.02 0  0.36 0.02 0  0.38 0.02 0  0.4 0.02 0  0.42 0.02 0  0.44 0.02 0  0.46 0.02 0  0.48 0.02 0  0.5 0.02 0  0.52 0.02 0  0.54 0.02 0  0.5600000000000001 0.02 0  0.58 0.02 0  0.6 0.02 0  0.62 0.02 0  0.64 0.02 0  0.66 0.02 0  0.68 0.02 0  0.7 0.02 0  0.72 0.02 0  0.74 0.02 0  0.76 0.02 0  0.78 0.02 0  0.8 0.02 0  0.82 0.02 0  0.84 0.02 0  0.86 0.02 0  0.88 0.02 0  0.9 0.02 0  0.92 0.02 0  0.9399999999999999 0.02 0  0.96 0.02 0  0.98 0.02 0  1 0.02 0  1.02 0.02 0  1.04 0.02 0  1.06 0.02 0  1.08 0.02 0  1.1 0.02 0  1.12 0.02 0  1.14 0.02 0  1.16 0.02 0  1.18 0.02 0  1.2 0.02 0  1.22 0.02 0  1.24 0.02 0  1.26 0.02 0  1.28 0.02 0  1.3 0.02 0  1.32 0.02 0  1.34 0.02 0  1.36 0.02 0  1.38 0.02 0  1.4 0.02 0  1.42 0.02 0  1.44 0.02 0  1.46 0.02 0  1.48 0.02 0  1.5 0.02 0  1.52 0.02 0  1.54 0.02 0  1.56 0.02 0  1.58 0.02 0  1.6 0.02 0  1.62 0.02 0  1.64 0.02 0  1.66 0.02 0  1.68 0.02 0  1.7 0.02 0  1.72 0.02 0  1.74 0.02 0  1.76 0.02 0  1.78 0.02 0  1.8 0.02 0  1.82 0.02 0  1.84 0.02 0  1.86 0.02 0  1.88 0.02 0  1.9 0.02 0  1.92 0.02 0  1.94 0.02 0  1.96 0.02 0  1.98 0.02 0  2 0.02 0  0 0.04 0  0.02 0.04 0  0.04 0.04 0  0.06 0.04 0  0.08 0.04 0  0.1 0.04 0  0.12 0.04 0  0.14 0.04 0  0.16 0.04 0  0.18 0.04 0  0.2 0.04 0  0.22 0.04 0  0.24 0.04 0  0.26 0.04 0  0.28 0.04 0  0.3 0.04 0  0.32 0.04 0  0.34 0.04 0  0.36 0.04 0  0.38 0.04 0  0.4 0.04 0  0.42 0.04 0  0.44 0.04 0  0.46 0.04 0  0.48 0.04 0  0.5 0.04 0  0.52 0.04 0  0.54 0.04 0  0.5600000000000001 0.04 0  0.58 0.04 0  0.6 0.04 0  0.62 0.04 0  0.64 0.04 0  0.66 0.04 0  0.68 0.04 0  0.7 0.04 0  0.72 0.04 0  0.74 0.04 0  0.76 0.04 0  0.78 0.04 0  0.8 0.04 0  0.82 0.04 0  0.84 0.04 0  0.86 0.04 0  0.88 0.04 0  0.9 0.04 0  0.92 0.04 0  0.9399999999999999 0.04 0  0.96 0.04 0  0.98 0.04 0  1 0.04 0  1.02 0.04 0  1.04 0.04 0  1.06 0.04 0  1.08 0.04 0  1.1 0.04 0  1.12 0.04 0  1.14 0.04 0  1.16 0.04 0  1.18 0.04 0  1.2 0.04 0  1.22 0.04 0  1.24 0.04 0  1.26 0.04 0  1.28 0.04 0  1.3 0.04 0  1.32 0.04 0  1.34 0.04 0  1.36 0.04 0  1.38 0.04 0  1.4 0.04 0  1.42 0.04 0  1.44 0.04 0  1.46 0.04 0  1.48 0.04 0  1.5 0.04 0  1.52 0.04 0  1.54 0.04 0  1.56 0.04 0  1.58 0.04 0  1.6 0.04 0  1.62 0.04 0  1.64 0.04 0  1.66 0.04 0  1.68 0.04 0  1.7 0.04 0  1.72 0.04 0  1.74 0.04 0  1.76 0.04 0  1.78 0.04 0  1.8 0.04 0  1.82 0.04 0  1.84 0.04 0  1.86 0.04 0  1.88 0.04 0  1.9 0.04 0  1.92 0.04 0  1.94 0.04 0  1.96 0.04 0  1.98 0.04 0  2 0.04 0  0 0.06 0  0.02 0.06 0  0.04 0.06 0  0.06 0.06 0  0.08 0.06 0  0.1 0.06 0  0.12 0.06 0  0.14 0.06 0  0.16 0.06 0  0.18 0.06 0  0.2 0.06 0  0.22 0.06 0  0.24 0.06 0  0.26 0.06 0  0.28 0.06 0  0.3 0.06 0  0.32 0.06 0  0.34 0.06 0  0.36 0.06 0  0.38 0.06 0  0.4 0.06 0  0.42 0.06 0  0.44 0.06 0  0.46 0.06 0  0.48 0.06 0  0.5 0.06 0  0.52 0.06 0  0.54 0.06 0  0.5600000000000001 0.06 0  0.58 0.06 0  0.6 0.06 0  0.62 0.06 0  0.64 0.06 0  0.66 0.06 0  0.68 0.06 0  0.7 0.06 0  0.72 0.06 0  0.74 0.06 0  0.76 0.06 0  0.78 0.06 0  0.8 0.06 0  0.82 0.06 0  0.84 0.06 0  0.86 0.06 0  0.88 0.06 0  0.9 0.06 0  0.92 0.06 0  0.9399999999999999 0.06 0  0.96 0.06 0  0.98 0.06 0  1 0.06 0  1.02 0.06 0  1.04 0.06 0  1.06 0.06 0  1.08 0.06 0  1.1 0.06 0  1.12 0.06 0  1.14 0.06 0  1.16 0.06 0  1.18 0.06 0  1.2 0.06 0  1.22 0.06 0  1.24 0.06 0  1.26 0.06 0  1.28 0.06 0  1.3 0.06 0  1.32 0.06 0  1.34 0.06 0  1.36 0.06 0  1.38 0.06 0  1.4 0.06 0  1.42 0.06 0  1.44 0.06 0  1.46 0.06 0  1.48 0.06 0  1.5 0.06 0  1.52 0.06 0  1.54 0.06 0  1.56 0.06 0  1.58 0.06 0  1.6 0.06 0  1.62 0.06 0  1.64 0.06 0  1.66 0.06 0  1.68 0.06 0  1.7 0.06 0  1.72 0.06 0  1.74 0.06 0  1.76 0.06 0  1.78 0.06 0  1.8 0.06 0  1.82 0.06 0  1.84 0.06 0  1.86 0.06 0  1.88 0.06 0  1.9 0.06 0  1.92 0.06 0  1.94 0.06 0  1.96 0.06 0  1.98 0.06 0  2 0.06 0  0 0.08 0  0.02 0.08 0  0.04 0.08 0  0.06 0.08 0  0.08 0.08 0  0.1 0.08 0  0.12 0.08 0  0.14 0.08 0  0.16 0.08 0  0.18 0.08 0  0.2 0.08 0  0.22 0.08 0  0.24 0.08 0  0.26 0.08 0  0.28 0.08 0  0.3 0.08 0  0.32 0.08 0  0.34 0.08 0  0.36 0.08 0  0.38 0.08 0  0.4 0.08 0  0.42 0.08 0  0.44 0.08 0  0.46 0.08 0  0.48 0.08 0  0.5 0.08 0  0.52 0.08 0  0.54 0.08 0  0.5600000000000001 0.08 0  0.58 0.08 0  0.6 0.08 0  0.62 0.08 0  0.64 0.08 0  0.66 0.08 0  0.68 0.08 0  0.7 0.08 0  0.72 0.08 0  0.74 0.08 0  0.76 0.08 0  0.78 0.08 0  0.8 0.08 0  0.82 0.08 0  0.84 0.08 0  0.86 0.08 0  0.88 0.08 0  0.9 0.08 0  0.92 0.08 0  0.9399999999999999 0.08 0  0.96 0.08 0  0.98 0.08 0  1 0.08 0  1.02 0.08 0  1.04 0.08 0  1.06 0.08 0  1.08 0.08 0  1.1 0.08 0  1.12 0.08 0  1.14 0.08 0  1.16 0.08 0  1.18 0.08 0  1.2 0.08 0  1.22 0.08 0  1.24 0.08 0  1.26 0.08 0  1.28 0.08 0  1.3 0.08 0  1.32 0.08 0  1.34 0.08 0  1.36 0.08 0  1.38 0.08 0  1.4 0.08 0  1.42 0.08 0  1.44 0.08 0  1.46 0.08 0  1.48 0.08 0  1.5 0.08 0  1.52 0.08 0  1.54 0.08 0  1.56 0.08 0  1.58 0.08 0  1.6 0.08 0  1.62 0.08 0  1.64 0.08 0  1.66 0.08 0  1.68 0.08 0  1.7 0.08 0  1.72 0.08 0  1.74 0.08 0  1.76 0.08 0  1.78 0.08 0  1.8 0.08 0  1.82 0.08 0  1.84 0.08 0  1.86 0.08 0  1.88 0.08 0  1.9 0.08 0  1.92 0.08 0  1.94 0.08 0  1.96 0.08 0  1.98 0.08 0  2 0.08 0  0 0.1 0  0.02 0.1 0  0.04 0.1 0  0.06 0.1 0  0.08 0.1 0  0.1 0.1 0  0.12 0.1 0  0.14 0.1 0  0.16 0.1 0  0.18 0.1 0  0.2 0.1 0  0.22 0.1 0  0.24 0.1 0  0.26 0.1 0  0.28 0.1 0  0.3 0.1 0  0.32 0.1 0  0.34 0.1 0  0.36 0.1 0  0.38 0.1 0  0.4 0.1 0  0.42 0.1 0  0.44 0.1 0  0.46 0.1 0  0.48 0.1 0  0.5 0.1 0  0.52 0.1 0  0.54 0.1 0  0.5600000000000001 0.1 0  0.58 0.1 0  0.6 0.1 0  0.62 0.1 0  0.64 0.1 0  0.66 0.1 0  0.68 0.1 0  0.7 0.1 0  0.72 0.1 0  0.74 0.1 0  0.76 0.1 0  0.78 0.1 0  0.8 0.1 0  0.82 0.1 0  0.84 0.1 0  0.86 0.1 0  0.88 0.1 0  0.9 0.1 0  0.92 0.1 0  0.9399999999999999 0.1 0  0.96 0.1 0  0.98 0.1 0  1 0.1 0  1.02 0.1 0  1.04 0.1 0  1.06 0.1 0  1.08 0.1 0  1.1 0.1 0  1.12 0.1 0  1.14 0.1 0  1.16 0.1 0  1.18 0.1 0  1.2 0.1 0  1.22 0.1 0  1.24 0.1 0  1.26 0.1 0  1.28 0.1 0  1.3 0.1 0  1.32 0.1 0  1.34 0.1 0  1.36 0.1 0  1.38 0.1 0  1.4 0.1 0  1.42 0.1 0  1.44 0.1 0  1.46 0.1 0  1.48 0.1 0  1.5 0.1 0  1.52 0.1 0  1.54 0.1 0  1.56 0.1 0  1.58 0.1 0  1.6 0.1 0  1.62 0.1 0  1.64 0.1 0  1.66 0.1 0  1.68 0.1 0  1.7 0.1 0  1.72 0.1 0  1.74 0.1 0  1.76 0.1 0  1.78 0.1 0  1.8 0.1 0  1.82 0.1 0  1.84 0.1 0  1.86 0.1 0  1.88 0.1 0  1.9 0.1 0  1.92 0.1 0  1.94 0.1 0  1.96 0.1 0  1.98 0.1 0  2 0.1 0  0 0.12 0  0.02 0.12 0  0.04 0.12 0  0.06 0.12 0  0.08 0.12 0  0.1 0.12 0  0.12 0.12 0  0.14 0.12 0  0.16 0.12 0  0.18 0.12 0  0.2 0.12 0  0.22 0.12 0  0.24 0.12 0  0.26 0.12 0  0.28 0.12 0  0.3 0.12 0  0.32 0.12 0  0.34 0.12 0  0.36 0.12 0  0.38 0.12 0  0.4 0.12 0  0.42 0.12 0  0.44 0.12 0  0.46 0.12 0  0.48 0.12 0  0.5 0.12 0  0.52 0.12 0  0.54 0.12 0  0.5600000000000001 0.12 0  0.58 0.12 0  0.6 0.12 0  0.62 0.12 0  0.64 0.12 0  0.66 0.12 0  0.68 0.12 0  0.7 0.12 0  0.72 0.12 0  0.74 0.12 0  0.76 0.12 0  0.78 0.12 0  0.8 0.12 0  0.82 0.12 0  0.84 0.12 0  0.86 0.12 0  0.88 0.12 0  0.9 0.12 0  0.92 0.12 0  0.9399999999999999 0.12 0  0.96 0.12 0  0.98 0.12 0  1 0.12 0  1.02 0.12 0  1.04 0.12 0  1.06 0.12 0  1.08 0.12 0  1.1 0.12 0  1.12 0.12 0  1.14 0.12 0  1.16 0.12 0  1.18 0.12 0  1.2 0.12 0  1.22 0.12 0  1.24 0.12 0  1.26 0.12 0  1.28 0.12 0  1.3 0.12 0  1.32 0.12 0  1.34 0.12 0  1.36 0.12 0  1.38 0.12 0  1.4 0.12 0  1.42 0.12 0  1.44 0.12 0  1.46 0.12 0  1.48 0.12 0  1.5 0.12 0  1.52 0.12 0  1.54 0.12 0  1.56 0.12 0  1.58 0.12 0  1.6 0.12 0  1.62 0.12 0  1.64 0.12 0  1.66 0.12 0  1.68 0.12 0  1.7 0.12 0  1.72 0.12 0  1.74 0.12 0  1.76 0.12 0  1.78 0.12 0  1.8 0.12 0  1.82 0.12 0  1.84 0.12 0  1.86 0.12 0  1.88 0.12 0  1.9 0.12 0  1.92 0.12 0  1.94 0.12 0  1.96 0.12 0  1.98 0.12 0  2 0.12 0  0 0.14 0  0.02 0.14 0  0.04 0.14 0  0.06 0.14 0  0.08 0.14 0  0.1 0.14 0  0.12 0.14 0  0.14 0.14 0  0.16 0.14 0  0.18 0.14 0  0.2 0.14 0  0.22 0.14 0  0.24 0.14 0  0.26 0.14 0  0.28 0.14 0  0.3 0.14 0  0.32 0.14 0  0.34 0.14 0  0.36 0.14 0  0.38 0.14 0  0.4 0.14 0  0.42 0.14 0  0.44 0.14 0  0.46 0.14 0  0.48 0.14 0  0.5 0.14 0  0.52 0.14 0  0.54 0.14 0  0.5600000000000001 0.14 0  0.58 0.14 0  0.6 0.14 0  0.62 0.14 0  0.64 0.14 0  0.66 0.14 0  0.68 0.14 0  0.7 0.14 0  0.72 0.14 0  0.74 0.14 0  0.76 0.14 0  0.78 0.14 0  0.8 0.14 0  0.82 0.14 0  0.84 0.14 0  0.86 0.14 0  0.88 0.14 0  0.9 0.14 0  0.92 0.14 0  0.9399999999999999 0.14 0  0.96 0.14 0  0.98 0.14 0  1 0.14 0  1.02 0.14 0  1.04 0.14 0  1.06 0.14 0  1.08 0.14 0  1.1 0.14 0  1.12 0.14 0  1.14 0.14 0  1.16 0.14 0  1.18 0.14 0  1.2 0.14 0  1.22 0.14 0  1.24 0.14 0  1.26 0.14 0  1.28 0.14 0  1.3 0.14 0  1.32 0.14 0  1.34 0.14 0  1.36 0.14 0  1.38 0.14 0  1.4 0.14 0  1.42 0.14 0  1.44 0.14 0  1.46 0.14 0  1.48 0.14 0  1
[...]
<PointData  Scalars="sols[i]"> 
<DataArray  type="Float64"  Name="sols[i]"  format="ascii">1.3964781395322623e-03  9.3153278309436940e-04  9.3153278309436951e-04  9.3153278309436973e-04  9.3153278309437038e-04  9.3153278309437211e-04  9.3153278309437331e-04  9.3153278309437699e-04  9.3153278309438209e-04  9.3153278309438903e-04  9.3153278309440150e-04  9.3153278309442025e-04  9.3153278309444714e-04  9.3153278309448802e-04  9.3153278309454982e-04  9.3153278309463547e-04  9.3153278309475733e-04  9.3153278309493005e-04  9.3153278309516456e-04  9.3153278309548245e-04  9.3153278309590865e-04  9.3153278309646430e-04  9.3153278309718117e-04  9.3153278309809245e-04  9.3153278309922479e-04  9.3153278310061246e-04  9.3153278310228473e-04  9.3153278310426687e-04  9.3153278310658413e-04  9.3153278310924780e-04  9.3153278311228086e-04  9.3153278311570293e-04  9.3153278311953460e-04  9.3153278312380506e-04  9.3153278312855647e-04  9.3153278313383133e-04  9.3153278313969903e-04  9.3153278314623850e-04  9.3153278315353887e-04  9.3153278316170161e-04  9.3153278317084089e-04  9.3153278318106741e-04  9.3153278319251453e-04  9.3153278320532633e-04  9.3153278321967434e-04  9.3153278323579263e-04  9.3153278325403530e-04  9.3153278327495249e-04  9.3153278329944885e-04  9.3153278332894739e-04  9.3153278336560730e-04  9.3153278341254512e-04  9.3153278347397526e-04  9.3153278355516628e-04  9.3153278366206178e-04  9.3153278380042983e-04  9.3153278397448320e-04  9.3153278418503418e-04  9.3153278442764578e-04  9.3153278469118388e-04  9.3153278495757463e-04  9.3153278520326265e-04  9.3153278540244338e-04  9.3153278553156471e-04  9.3153278557401090e-04  9.3153278552363138e-04  9.3153278538602108e-04  9.3153278517716352e-04  9.3153278491993341e-04  9.3153278463954995e-04  9.3153278435939124e-04  9.3153278409794889e-04  9.3153278386743786e-04  9.3153278367387948e-04  9.3153278351817222e-04  9.3153278339762205e-04  9.3153278330747726e-04  9.3153278324219473e-04  9.3153278319632431e-04  9.3153278316502382e-04  9.3153278314428141e-04  9.3153278313094605e-04  9.3153278312261146e-04  9.3153278311753534e-04  9.3153278311446986e-04  9.3153278311254356e-04  9.3153278311117606e-04  9.3153278311000197e-04  9.3153278310881499e-04  9.3153278310752338e-04  9.3153278310611457e-04  9.3153278310462585e-04  9.3153278310311892e-04  9.3153278310166923e-04  9.3153278310032189e-04  9.3153278309913686e-04  9.3153278309815294e-04  9.3153278309739129e-04  9.3153278309687142e-04  9.3153278309661880e-04  2.7872357478104055e-03  9.3153278309436940e-04  4.6601392493414369e-04  4.6601392493414380e-04  4.6601392493414396e-04  4.6601392493414434e-04  4.6601392493414526e-04  4.6601392493414619e-04  4.6601392493414814e-04  4.6601392493415144e-04  4.6601392493415589e-04  4.6601392493416326e-04  4.6601392493417492e-04  4.6601392493419167e-04  4.6601392493421688e-04  4.6601392493425488e-04  4.6601392493430898e-04  4.6601392493438547e-04  4.6601392493449405e-04  4.6601392493464340e-04  4.6601392493484593e-04  4.6601392493511855e-04  4.6601392493547683e-04  4.6601392493594043e-04  4.6601392493653219e-04  4.6601392493727189e-04  4.6601392493818099e-04  4.6601392493928026e-04  4.6601392494058656e-04  4.6601392494211626e-04  4.6601392494387907e-04  4.6601392494588663e-04  4.6601392494815278e-04  4.6601392495069014e-04  4.6601392495351730e-04  4.6601392495666057e-04  4.6601392496015077e-04  4.6601392496403059e-04  4.6601392496835477e-04  4.6601392497318283e-04  4.6601392497858362e-04  4.6601392498463325e-04  4.6601392499140892e-04  4.6601392499899562e-04  4.6601392500748796e-04  4.6601392501699284e-04  4.6601392502765239e-04  4.6601392503967868e-04  4.6601392505340588e-04  4.6601392506938626e-04  4.6601392508851370e-04  4.6601392511217354e-04  4.6601392514241280e-04  4.6601392518206929e-04  4.6601392523478450e-04  4.6601392530479474e-04  4.6601392539638456e-04  4.6601392551294058e-04  4.6601392565563562e-04  4.6601392582200856e-04  4.6601392600481708e-04  4.6601392619168372e-04  4.6601392636600472e-04  4.6601392650920886e-04  4.6601392660403752e-04  4.6601392663804986e-04  4.6601392660633440e-04  4.6601392651255915e-04  4.6601392636803137e-04  4.6601392618912392e-04  4.6601392599392345e-04  4.6601392579911921e-04  4.6601392561781751e-04  4.6601392545855401e-04  4.6601392532540938e-04  4.6601392521882867e-04  4.6601392513675132e-04  4.6601392507572201e-04  4.6601392503178867e-04  4.6601392500111616e-04  4.6601392498033331e-04  4.6601392496667231e-04  4.6601392495797478e-04  4.6601392495261178e-04  4.6601392494939880e-04  4.6601392494749965e-04  4.6601392494632974e-04  4.6601392494550147e-04  4.6601392494477256e-04  4.6601392494400793e-04  4.6601392494315059e-04  4.6601392494219753e-04  4.6601392494117875e-04  4.6601392494014101e-04  4.6601392493913715e-04  4.6601392493820696e-04  4.6601392493738540e-04  4.6601392493670192e-04  4.6601392493616942e-04  4.6601392493579873e-04  4.6601392493560064e-04  9.3153278309697843e-04  9.3153278309436973e-04  4.6601392493414385e-04  4.6601392493414418e-04  4.6601392493414445e-04  4.6601392493414516e-04  4.6601392493414657e-04  4.6601392493414841e-04  4.6601392493415172e-04  4.6601392493415746e-04  4.6601392493416570e-04  4.6601392493417898e-04  4.6601392493419985e-04  4.6601392493423075e-04  4.6601392493427716e-04  4.6601392493434682e-04  4.6601392493444705e-04  4.6601392493459000e-04  4.6601392493479345e-04  4.6601392493507508e-04  4.6601392493545991e-04  4.6601392493597968e-04  4.6601392493666728e-04  4.6601392493756207e-04  4.6601392493870829e-04  4.6601392494014752e-04  4.6601392494192225e-04  4.6601392494407282e-04  4.6601392494663245e-04  4.6601392494963049e-04  4.6601392495308682e-04  4.6601392495702095e-04  4.6601392496145556e-04  4.6601392496641405e-04  4.6601392497193090e-04  4.6601392497805605e-04  4.6601392498485280e-04  4.6601392499240671e-04  4.6601392500082511e-04  4.6601392501022959e-04  4.6601392502075844e-04  4.6601392503256290e-04  4.6601392504579825e-04  4.6601392506062883e-04  4.6601392507722965e-04  4.6601392509579292e-04  4.6601392511656456e-04  4.6601392513990656e-04  4.6601392516640365e-04  4.6601392519704797e-04  4.6601392523349983e-04  4.6601392527842228e-04  4.6601392533587507e-04  4.6601392541165533e-04  4.6601392551342429e-04  4.6601392565036711e-04  4.6601392583210503e-04  4.6601392606666046e-04  4.6601392635751336e-04  4.6601392670026875e-04  4.6601392707987146e-04  4.6601392746962859e-04  4.6601392783316277e-04  4.6601392812959562e-04  4.6601392832116060e-04  4.6601392838131398e-04  4.6601392830085278e-04  4.6601392808996381e-04  4.6601392777551249e-04  4.6601392739463741e-04  4.6601392698689847e-04  4.6601392658738883e-04  4.6601392622232620e-04  4.6601392590751850e-04  4.6601392564920690e-04  4.6601392544628258e-04  4.6601392529293839e-04  4.6601392518107085e-04  4.6601392510208650e-04  4.6601392504804065e-04  4.6601392501220251e-04  4.6601392498921184e-04  4.6601392497499231e-04  4.6601392496653911e-04  4.6601392496170297e-04  4.6601392495898369e-04  4.6601392495735223e-04  4.6601392495613695e-04  4.6601392495493088e-04  4.6601392495352375e-04  4.6601392495184817e-04  4.6601392494993401e-04  4.6601392494786882e-04  4.6601392494576509e-04  4.6601392494373720e-04  4.6601392494187438e-04  4.6601392494024629e-04  4.6601392493890226e-04  4.6601392493786413e-04  4.6601392493714666e-04  4.6601392493676502e-04  9.3153278309887285e-04  9.3153278309437027e-04  4.6601392493414423e-04  4.6601392493414461e-04  4.6601392493414548e-04  4.6601392493414684e-04  4.6601392493414938e-04  4.6601392493415318e-04  4.6601392493415979e-04  4.6601392493417074e-04  4.6601392493418739e-04  4.6601392493421417e-04  4.6601392493425612e-04  4.6601392493431928e-04  4.6601392493441485e-04  4.6601392493455786e-04  4.6601392493476640e-04  4.6601392493506629e-04  4.6601392493549363e-04  4.6601392493609059e-04  4.6601392493691166e-04  4.6601392493802530e-04  4.6601392493950805e-04  4.6601392494144812e-04  4.6601392494394336e-04  4.6601392494709053e-04  4.6601392495098531e-04  4.6601392495571623e-04  4.6601392496135711e-04  4.6601392496796874e-04  4.6601392497559437e-04  4.6601392498427178e-04  4.6601392499404196e-04  4.6601392500495277e-04  4.6601392501707632e-04  4.6601392503051897e-04  4.6601392504542398e-04  4.6601392506198197e-04  4.6601392508043151e-04  4.6601392510104832e-04  4.6601392512414367e-04  4.6601392515005529e-04  4.6601392517913191e-04  4.6601392521173170e-04  4.6601392524822139e-04  4.6601392528898853e-04  4.6601392533450182e-04  4.6601392538543667e-04  4.6601392544290155e-04  4.6601392550883676e-04  4.6601392558660886e-04  4.6601392568182079e-04  4.6601392580330201e-04  4.6601392596406572e-04  4.6601392618184659e-04  4.6601392647859223e-04  4.6601392687814106e-04  4.6601392740145851e-04  4.6601392805938969e-04  4.6601392884406399e-04  4.6601392972138819e-04  4.6601393062800102e-04  4.6601393147574537e-04  4.6601393216465827e-04  4.6601393260243797e-04  4.6601393272527677e-04  4.6601393251336800e-04  4.6601393199549785e-04  4.6601393124106049e-04  4.6601393034275323e-04  4.6601392939633868e-04  4.6601392848379667e-04  4.6601392766351001e-04  4.6601392696791994e-04  4.6601392640682857e-04  4.6601392597360236e-04  4.6601392565188645e-04  4.6601392542128749e-04  4.6601392526137119e-04  4.6601392515397761e-04  4.6601392508420009e-04  4.6601392504047964e-04  4.6601392501422091e-04  4.6601392499921377e-04  4.6601392499107694e-04  4.6601392498678295e-04  4.6601392498428240e-04  4.6601392498225636e-04  4.6601392497993020e-04  4.6601392497693737e-04  4.6601392497320858e-04  4.6601392496887454e-04  4.6601392496417945e-04  4.6601392495940799e-04  4.6601392495483130e-04  4.6601392495066205e-04  4.6601392494705123e-04  4.6601392494409222e-04  4.6601392494182348e-04  4.6601392494026282e-04  4.6601392493943243e-04  9.3153278310334291e-04  9.3153278309437168e-04  4.6601392493414499e-04  4.6601392493414575e-04  4.6601392493414727e-04  4.6601392493415003e-04  4.6601392493415502e-04  4.6601392493416283e-04  4.6601392493417611e-04  4.6601392493419817e-04  4.6601392493423265e-04  4.6601392493428800e-04  4.6601392493437495e-04  4.6601392493450809e-04  4.6601392493471040e-04  4.6601392493501441e-04  4.6601392493546132e-04  4.6601392493610924e-04  4.6601392493703645e-04  4.6601392493833993e-04  4.6601392494014415e-04  4.6601392494260296e-04  4.6601392494589476e-04  4.6601392495022452e-04  4.6601392495581689e-04  4.6601392496289961e-04  4.6601392497169482e-04  4.6601392498240495e-04  4.6601392499519712e-04  4.6601392501020313e-04  4.6601392502751583e-04  4.6601392504720917e-04  4.6601392506935959e-04  4.6601392509406574e-04  4.6601392512148163e-04  4.6601392515184184e-04  4.6601392518547477e-04  4.6601392522281810e-04  4.6601392526441856e-04  4.6601392531091506e-04  4.6601392536302718e-04  4.6601392542153171e-04  4.6601392548723057e-04  4.6601392556093214e-04  4.6601392564343683e-04  4.6601392573555065e-04  4.6601392583818843e-04  4.6601392595261746e-04  4.6601392608094098e-04  4.6601392622696615e-04  4.6601392639757084e-04  4.6601392660466061e-04  4.6601392686766816e-04  4.6601392721619210e-04  4.6601392769186634e-04  4.6601392834789382e-04  4.6601392924416348e-04  4.6601393043601744e-04  4.6601393195613530e-04  4.6601393379203777e-04  4.6601393586553149e-04  4.6601393802329178e-04  4.6601394004714189e-04  4.6601394168719874e-04  4.6601394271263889e-04  4.6601394296638221e-04  4.6601394240535361e-04  4.6601394111088631e-04  4.6601393926514519e-04  4.6601393710363626e-04  4.6601393486218526e-04  4.6601393273529518e-04  4.6601393085443876e-04  4.6601392928583642e-04  4.6601392804166135e-04  4.6601392709713022e-04  4.6601392640749302e-04  4.6601392592149387e-04  4.6601392559020863e-04  4.6601392537168183e-04  4.6601392523246485e-04  4.6601392514725615e-04  4.6601392509762696e-04  4.6601392507048835e-04  4.6601392505671546e-04  4.6601392505004827e-04  4.6601392504628814e-04  4.6601392504276590e-04  4.6601392503796597e-04  4.6601392503124744e-04  4.6601392502260982e-04  4.6601392501247849e-04  4.6601392500150794e-04  4.6601392499041308e-04  4.6601392497984428e-04  4.6601392497029945e-04  4.6601392496210971e-04  4.6601392495545369e-04  4.6601392495038867e-04  4.6601392494692150e-04  4.6601392494507272e-04  9.3153278311281992e-04  9.3153278309437483e-04  4.6601392493414662e-04  4.6601392493414819e-04  4.6601392493415128e-04  4.6601392493415681e-04  4.6601392493416651e-04  4.6601392493418251e-04  4.6601392493420950e-04  4.6601392493425423e-04  4.6601392493432578e-04  4.6601392493444098e-04  4.6601392493462291e-04  4.6601392493490464e-04  4.6601392493533604e-04  4.6601392493598722e-04  4.6601392493695221e-04  4.6601392493836075e-04  4.6601392494038691e-04  4.6601392494325267e-04  4.6601392494724205e-04  4.6601392495270686e-04  4.6601392496006236e-04  4.6601392496978646e-04  4.6601392498240256e-04  4.6601392499844707e-04  4.6601392501844019e-04  4.6601392504284895e-04  4.6601392507205551e-04  4.6601392510634704e-04  4.6601392514591819e-04  4.6601392519091020e-04  4.6601392524146307e-04  4.6601392529777469e-04  4.6601392536017530e-04  4.6601392542918699e-04  4.6601392550556323e-04  4.6601392559031542e-04  4.6601392568470872e-04  4.6601392579023146e-04  4.6601392590855625e-04  4.6601392604148458e-04  4.6601392619087409e-04  4.6601392635857273e-04  4.6601392654635926e-04  4.6601392675593711e-04  4.6601392698909148e-04  4.6601392724815108e-04  4.6601392753698861e-04  4.6601392786289669e-04  4.6601392823969359e-04  4.6601392869238079e-04  4.6601392926339338e-04  4.6601393001970782e-04  4.6601393105876973e-04  4.6601393250936528e-04  4.6601393452185740e-04  4.6601393724199401e-04  4.6601394076566268e-04  4.6601394507986299e-04  4.6601395000622341e-04  4.6601395517228272e-04  4.6601396003476895e-04  4.6601396396460002e-04  4.6601396638013221e-04  4.6601396689188946e-04  4.6601396540817830e-04  4.6601396215823160e-04  4.6601395762256901e-04  4.6601395240186683e-04  4.6601394707768015e-04  4.6601394211020862e-04  4.6601393779220309e-04  4.6601393425315643e-04  4.6601393149469305e-04  4.6601392943675400e-04  4.6601392795997469e-04  4.6601392693705363e-04  4.6601392625180349e-04  4.6601392580794185e-04  4.6601392553086748e-04  4.6601392536550220e-04  4.6601392527252097e-04  4.6601392522442088e-04  4.6601392520220926e-04  4.6601392519292204e-04  4.6601392518791173e-04  4.6601392518174674e-04  4.6601392517146124e-04  4.6601392515598886e-04  4.6601392513566202e-04  4.6601392511172977e-04  4.6601392508590229e-04  4.6601392505995619e-04  4.6601392503544482e-04  4.6601392501351862e-04  4.6601392499489121e-04  4.6601392497989209e-04  4.6601392496857242e-04  4.6601392496086667e-04  4.6601392495675023e-04  9.3153278313239812e-04  9.3153278309437916e-04  4.6601392493414917e-04  4.6601392493415237e-04  4.6601392493415844e-04  4.6601392493416933e-04  4.6601392493418858e-04  4.6601392493422094e-04  4.6601392493427564e-04  4.6601392493436666e-04  4.6601392493451481e-04  4.6601392493475437e-04  4.6601392493513552e-04  4.6601392493573172e-04  4.6601392493665113e-04  4.6601392493804780e-04  4.6601392494013266e-04  4.6601392494319575e-04  4.6601392494762705e-04  4.6601392495393185e-04  4.6601392496275828e-04  4.6601392497491392e-04  4.6601392499136393e-04  4.6601392501322399e-04  4.6601392504172024e-04  4.6601392507811696e-04  4.6601392512363534e-04  4.6601392517936100e-04  4.6601392524616596e-04  4.6601392532467781e-04  4.6601392541529370e-04  4.6601392551826753e-04  4.6601392563384034e-04  4.6601392576239717e-04  4.6601392590464022e-04  4.6601392606173580e-04  4.6601392623541241e-04  4.6601392642801203e-04  4.6601392664247633e-04  4.6601392688227388e-04  4.6601392715130168e-04  4.6601392745375083e-04  4.6601392779393829e-04  4.6601392817612340e-04  4.6601392860431533e-04  4.6601392908216373e-04  4.6601392961314686e-04  4.6601393020139403e-04  4.6601393085368887e-04  4.6601393158345197e-04  4.6601393241767572e-04  4.6601393340783370e-04  4.6601393464528368e-04  4.6601393628003748e-04  4.6601393853852520e-04  4.6601394173098241e-04  4.6601394623369381e-04  4.6601395242908979e-04  4.6601396059328318e-04  4.6601397074110315e-04  4.6601398247048966e-04  4.6601399487584434e-04  4.6601400659944278e-04  4.6601401605003007e-04  4.6601402175397373e-04  4.6601402274078994e-04  4.6601401882286091e-04  4.6601401064532626e-04  4.6601399947993690e-04  4.6601398686111576e-04  4.6601397422017609e-04  4.6601396263765588e-04  4.6601395275245499e-04  4.6601394479871722e-04  4.6601393871247156e-04  4.6601393425403328e-04  4.6601393111183183e-04  4.6601392897385226e-04  4.6601392756718700e-04  4.6601392667317270e-04  4.6601392612713439e-04  4.6601392581039101e-04  4.6601392563983034e-04  4.6601392555811256e-04  4.6601392552591333e-04  4.6601392551643697e-04  4.6601392551185177e-04  4.6601392550108992e-04  4.6601392547839063e-04  4.6601392544216120e-04  4.6601392539389588e-04  4.6601392533707485e-04  4.6601392527609195e-04  4.6601392521532437e-04  4.6601392515845948e-04  4.6601392510811900e-04  4.6601392506580872e-04  4.6601392503208759e-04  4.6601392500687018e-04  4.6601392498981287e-04  4.6601392498069245e-04  9.3153278317240670e-04  9.3153278309438935e-04  4.6601392493415470e-04  4.6601392493416071e-04  4.6601392493417259e-04  4.6601392493419405e-04  4.6601392493423216e-04  4.6601392493429711e-04  4.6601392493440764e-04  4.6601392493459277e-04  4.6601392493489770e-04  4.6601392493539481e-04  4.6601392493619208e-04  4.6601392493745051e-04  4.6601392493940668e-04  4.6601392494239843e-04  4.6601392494689700e-04  4.6601392495355015e-04  4.6601392496323197e-04  4.6601392497708905e-04  4.6601392499659975e-04  4.6601392502361737e-04  4.6601392506038359e-04  4.6601392510950488e-04  4.6601392517386150e-04  4.6601392525643780e-04  4.6601392536010862e-04  4.6601392548740501e-04  4.6601392564031883e-04  4.6601392582021616e-04  4.6601392602788137e-04  4.6601392626372396e-04  4.6601392652810623e-04  4.6601392682174005e-04  4.6601392714610651e-04  4.6601392750381164e-04  4.6601392789882428e-04  4.6601392833657974e-04  4.6601392882392943e-04  4.6601392936896502e-04  4.6601392998077065e-04  4.6601393066911153e-04  4.6601393144404634e-04  4.6601393231545751e-04  4.6601393329249758e-04  4.6601393438311861e-04  4.6601393559411822e-04  4.6601393693246253e-04  4.6601393840913516e-04  4.6601394004738340e-04  4.6601394189789018e-04  4.6601394406385762e-04  4.6601394673835192e-04  4.6601395025292516e-04  4.6601395512877759e-04  4.6601396210844693e-04  4.6601397212961442e-04  4.6601398619194916e-04  4.6601400507965973e-04  4.6601402895460212e-04  4.6601405692635035e-04  4.6601408679272416e-04  4.6601411514926572e-04  4.6601413795282549e-04  4.6601415144964325e-04  4.6601415320877564e-04  4.6601414287144357e-04  4.6601412225340732e-04  4.6601409473201515e-04  4.6601406423051083e-04  4.6601403425924751e-04  4.6601400732778806e-04  4.6601398479058088e-04  4.6601396701021250e-04  4.6601395366748633e-04  4.6601394407937602e-04  4.6601393744811413e-04  4.6601393301923055e-04  4.6601393015938857e-04  4.6601392837782577e-04  4.6601392731535112e-04  4.6601392671925443e-04  4.6601392641581921e-04  4.6601392628655807e-04  4.6601392625047957e-04  4.6601392625226362e-04  4.6601392625505609e-04  4.6601392623625988e-04  4.6601392618480554e-04  4.6601392609887514e-04  4.6601392598353723e-04  4.6601392584818326e-04  4.6601392570396930e-04  4.6601392556160190e-04  4.6601392542977544e-04  4.6601392531438928e-04  4.6601392521852792e-04  4.6601392514297908e-04  4.6601392508704661e-04  4.6601392504948708e-04  4.6601392502940587e-04  9.3153278325350405e-04  9.3153278309440757e-04  4.6601392493416494e-04  4.6601392493417660e-04  4.6601392493419996e-04  4.6601392493424214e-04  4.6601392493431716e-04  4.6601392493444673e-04  4.6601392493466883e-04  4.6601392493504450e-04  4.6601392493566938e-04  4.6601392493669672e-04  4.6601392493835956e-04  4.6601392494100756e-04  4.6601392494515745e-04  4.6601392495155311e-04  4.6601392496124013e-04  4.6601392497566441e-04  4.6601392499678483e-04  4.6601392502719431e-04  4.6601392507025877e-04  4.6601392513023255e-04  4.66013925212