<?xml version="1.0"?>
<VTKFile type="UnstructuredGrid"  version="0.1"  >
<UnstructuredGrid>
<Piece  NumberOfPoints="5151" NumberOfCells="10000">
<Points>
<DataArray  type="Float64"  NumberOfComponents="3"  format="ascii">0 0 0  0.02 0 0  0.04 0 0  0.06 0 0  0.08 0 0  0.1 0 0  0.12 0 0  0.14 0 0  0.16 0 0  0.18 0 0  0.2 0 0  0.22 0 0  0.24 0 0  0.26 0 0  0.28 0 0  0.3 0 0  0.32 0 0  0.34 0 0  0.36 0 0  0.38 0 0  0.4 0 0  0.42 0 0  0.44 0 0  0.46 0 0  0.48 0 0  0.5 0 0  0.52 0 0  0.54 0 0  0.5600000000000001 0 0  0.58 0 0  0.6 0 0  0.62 0 0  0.64 0 0  0.66 0 0  0.68 0 0  0.7 0 0  0.72 0 0  0.74 0 0  0.76 0 0  0.78 0 0  0.8 0 0  0.82 0 0  0.84 0 0  0.86 0 0  0.88 0 0  0.9 0 0  0.92 0 0  0.9399999999999999 0 0  0.96 0 0  0.98 0 0  1 0 0  1.02 0 0  1.04 0 0  1.06 0 0  1.08 0 0  1.1 0 0  1.12 0 0  1.14 0 0  1.16 0 0  1.18 0 0  1.2 0 0  1.22 0 0  1.24 0 0  1.26 0 0  1.28 0 0  1.3 0 0  1.32 0 0  1.34 0 0  1.36 0 0  1.38 0 0  1.4 0 0  1.42 0 0  1.44 0 0  1.46 0 0  1.48 0 0  1.5 0 0  1.52 0 0  1.54 0 0  1.56 0 0  1.58 0 0  1.6 0 0  1.62 0 0  1.64 0 0  1.66 0 0  1.68 0 0  1.7 0 0  1.72 0 0  1.74 0 0  1.76 0 0  1.78 0 0  1.8 0 0  1.82 0 0  1.84 0 0  1.86 0 0  1.88 0 0  1.9 0 0  1.92 0 0  1.94 0 0  1.96 0 0  1.98 0 0  2 0 0  0 0.02 0  0.02 0.02 0  0.04 0.02 0  0.06 0.02 0  0.08 0.02 0  0.1 0.02 0  0.12 0.02 0  0.14 0.02 0  0.16 0.02 0  0.18 0.02 0  0.2 0.02 0  0.22 0.02 0  0.24 0.02 0  0.26 0.02 0  0.28 0.02 0  0.3 0.02 0  0.32 0.02 0  0.34 0.02 0  0.36 0.02 0  0.38 0.02 0  0.4 0.02 0  0.42 0.02 0  0.44 0.02 0  0.46 0.02 0  0.48 0.02 0  0.5 0.02 0  0.52 0.02 0  0.54 0.02 0  0.5600000000000001 0.02 0  0.58 0.02 0  0.6 0.02 0  0.62 0.02 0  0.64 0.02 0  0.66 0.02 0  0.68 0.02 0  0.7 0.02 0  0.72 0.02 0  0.74 0.02 0  0.76 0.02 0  0.78 0.02 0  0.8 0.02 0  0.82 0.02 0  0.84 0.02 0  0.86 0.02 0  0.88 0.02 0  0.9 0.02 0  0.92 0.02 0  0.9399999999999999 0.02 0  0.96 0.02 0  0.98 0.02 0  1 0.02 0  1.02 0.02 0  1.04 0.02 0  1.06 0.02 0  1.08 0.02 0  1.1 0.02 0  1.12 0.02 0  1.14 0.02 0  1.16 0.02 0  1.18 0.02 0  1.2 0.02 0  1.22 0.02 0  1.24 0.02 0  1.26 0.02 0  1.28 0.02 0  1.3 0.02 0  1.32 0.02 0  1.34 0.02 0  1.36 0.02 0  1.38 0.02 0  1.4 0.02 0  1.42 0.02 0  1.44 0.02 0  1.46 0.02 0  1.48 0.02 0  1.5 0.02 0  1.52 0.02 0  1.54 0.02 0  1.56 0.02 0  1.58 0.02 0  1.6 0.02 0  1.62 0.02 0  1.64 0.02 0  1.66 0.02 0  1.68 0.02 0  1.7 0.02 0  1.72 0.02 0  1.74 0.02 0  1.76 0.02 0  1.78 0.02 0  1.8 0.02 0  1.82 0.02 0  1.84 0.02 0  1.86 0.02 0  1.88 0.02 0  1.9 0.02 0  1.92 0.02 0  1.94 0.02 0  1.96 0.02 0  1.98 0.02 0  2 0.02 0  0 0.04 0  0.02 0.04 0  0.04 0.04 0  0.06 0.04 0  0.08 0.04 0  0.1 0.04 0  0.12 0.04 0  0.14 0.04 0  0.16 0.04 0  0.18 0.04 0  0.2 0.04 0  0.22 0.04 0  0.24 0.04 0  0.26 0.04 0  0.28 0.04 0  0.3 0.04 0  0.32 0.04 0  0.34 0.04 0  0.36 0.04 0  0.38 0.04 0  0.4 0.04 0  0.42 0.04 0  0.44 0.04 0  0.46 0.04 0  0.48 0.04 0  0.5 0.04 0  0.52 0.04 0  0.54 0.04 0  0.5600000000000001 0.04 0  0.58 0.04 0  0.6 0.04 0  0.62 0.04 0  0.64 0.04 0  0.66 0.04 0  0.68 0.04 0  0.7 0.04 0  0.72 0.04 0  0.74 0.04 0  0.76 0.04 0  0.78 0.04 0  0.8 0.04 0  0.82 0.04 0  0.84 0.04 0  0.86 0.04 0  0.88 0.04 0  0.9 0.04 0  0.92 0.04 0  0.9399999999999999 0.04 0  0.96 0.04 0  0.98 0.04 0  1 0.04 0  1.02 0.04 0  1.04 0.04 0  1.06 0.04 0  1.08 0.04 0  1.1 0.04 0  1.12 0.04 0  1.14 0.04 0  1.16 0.04 0  1.18 0.04 0  1.2 0.04 0  1.22 0.04 0  1.24 0.04 0  1.26 0.04 0  1.28 0.04 0  1.3 0.04 0  1.32 0.04 0  1.34 0.04 0  1.36 0.04 0  1.38 0.04 0  1.4 0.04 0  1.42 0.04 0  1.44 0.04 0  1.46 0.04 0  1.48 0.04 0  1.5 0.04 0  1.52 0.04 0  1.54 0.04 0  1.56 0.04 0  1.58 0.04 0  1.6 0.04 0  1.62 0.04 0  1.64 0.04 0  1.66 0.04 0  1.68 0.04 0  1.7 0.04 0  1.72 0.04 0  1.74 0.04 0  1.76 0.04 0  1.78 0.04 0  1.8 0.04 0  1.82 0.04 0  1.84 0.04 0  1.86 0.04 0  1.88 0.04 0  1.9 0.04 0  1.92 0.04 0  1.94 0.04 0  1.96 0.04 0  1.98 0.04 0  2 0.04 0  0 0.06 0  0.02 0.06 0  0.04 0.06 0  0.06 0.06 0  0.08 0.06 0  0.1 0.06 0  0.12 0.06 0  0.14 0.06 0  0.16 0.06 0  0.18 0.06 0  0.2 0.06 0  0.22 0.06 0  0.24 0.06 0  0.26 0.06 0  0.28 0.06 0  0.3 0.06 0  0.32 0.06 0  0.34 0.06 0  0.36 0.06 0  0.38 0.06 0  0.4 0.06 0  0.42 0.06 0  0.44 0.06 0  0.46 0.06 0  0.48 0.06 0  0.5 0.06 0  0.52 0.06 0  0.54 0.06 0  0.5600000000000001 0.06 0  0.58 0.06 0  0.6 0.06 0  0.62 0.06 0  0.64 0.06 0  0.66 0.06 0  0.68 0.06 0  0.7 0.06 0  0.72 0.06 0  0.74 0.06 0  0.76 0.06 0  0.78 0.06 0  0.8 0.06 0  0.82 0.06 0  0.84 0.06 0  0.86 0.06 0  0.88 0.06 0  0.9 0.06 0  0.92 0.06 0  0.9399999999999999 0.06 0  0.96 0.06 0  0.98 0.06 0  1 0.06 0  1.02 0.06 0  1.04 0.06 0  1.06 0.06 0  1.08 0.06 0  1.1 0.06 0  1.12 0.06 0  1.14 0.06 0  1.16 0.06 0  1.18 0.06 0  1.2 0.06 0  1.22 0.06 0  1.24 0.06 0  1.26 0.06 0  1.28 0.06 0  1.3 0.06 0  1.32 0.06 0  1.34 0.06 0  1.36 0.06 0  1.38 0.06 0  1.4 0.06 0  1.42 0.06 0  1.44 0.06 0  1.46 0.06 0  1.48 0.06 0  1.5 0.06 0  1.52 0.06 0  1.54 0.06 0  1.56 0.06 0  1.58 0.06 0  1.6 0.06 0  1.62 0.06 0  1.64 0.06 0  1.66 0.06 0  1.68 0.06 0  1.7 0.06 0  1.72 0.06 0  1.74 0.06 0  1.76 0.06 0  1.78 0.06 0  1.8 0.06 0  1.82 0.06 0  1.84 0.06 0  1.86 0.06 0  1.88 0.06 0  1.9 0.06 0  1.92 0.06 0  1.94 0.06 0  1.96 0.06 0  1.98 0.06 0  2 0.06 0  0 0.08 0  0.02 0.08 0  0.04 0.08 0  0.06 0.08 0  0.08 0.08 0  0.1 0.08 0  0.12 0.08 0  0.14 0.08 0  0.16 0.08 0  0.18 0.08 0  0.2 0.08 0  0.22 0.08 0  0.24 0.08 0  0.26 0.08 0  0.28 0.08 0  0.3 0.08 0  0.32 0.08 0  0.34 0.08 0  0.36 0.08 0  0.38 0.08 0  0.4 0.08 0  0.42 0.08 0  0.44 0.08 0  0.46 0.08 0  0.48 0.08 0  0.5 0.08 0  0.52 0.08 0  0.54 0.08 0  0.5600000000000001 0.08 0  0.58 0.08 0  0.6 0.08 0  0.62 0.08 0  0.64 0.08 0  0.66 0.08 0  0.68 0.08 0  0.7 0.08 0  0.72 0.08 0  0.74 0.08 0  0.76 0.08 0  0.78 0.08 0  0.8 0.08 0  0.82 0.08 0  0.84 0.08 0  0.86 0.08 0  0.88 0.08 0  0.9 0.08 0  0.92 0.08 0  0.9399999999999999 0.08 0  0.96 0.08 0  0.98 0.08 0  1 0.08 0  1.02 0.08 0  1.04 0.08 0  1.06 0.08 0  1.08 0.08 0  1.1 0.08 0  1.12 0.08 0  1.14 0.08 0  1.16 0.08 0  1.18 0.08 0  1.2 0.08 0  1.22 0.08 0  1.24 0.08 0  1.26 0.08 0  1.28 0.08 0  1.3 0.08 0  1.32 0.08 0  1.34 0.08 0  1.36 0.08 0  1.38 0.08 0  1.4 0.08 0  1.42 0.08 0  1.44 0.08 0  1.46 0.08 0  1.48 0.08 0  1.5 0.08 0  1.52 0.08 0  1.54 0.08 0  1.56 0.08 0  1.58 0.08 0  1.6 0.08 0  1.62 0.08 0  1.64 0.08 0  1.66 0.08 0  1.68 0.08 0  1.7 0.08 0  1.72 0.08 0  1.74 0.08 0  1.76 0.08 0  1.78 0.08 0  1.8 0.08 0  1.82 0.08 0  1.84 0.08 0  1.86 0.08 0  1.88 0.08 0  1.9 0.08 0  1.92 0.08 0  1.94 0.08 0  1.96 0.08 0  1.98 0.08 0  2 0.08 0  0 0.1 0  0.02 0.1 0  0.04 0.1 0  0.06 0.1 0  0.08 0.1 0  0.1 0.1 0  0.12 0.1 0  0.14 0.1 0  0.16 0.1 0  0.18 0.1 0  0.2 0.1 0  0.22 0.1 0  0.24 0.1 0  0.26 0.1 0  0.28 0.1 0  0.3 0.1 0  0.32 0.1 0  0.34 0.1 0  0.36 0.1 0  0.38 0.1 0  0.4 0.1 0  0.42 0.1 0  0.44 0.1 0  0.46 0.1 0  0.48 0.1 0  0.5 0.1 0  0.52 0.1 0  0.54 0.1 0  0.5600000000000001 0.1 0  0.58 0.1 0  0.6 0.1 0  0.62 0.1 0  0.64 0.1 0  0.66 0.1 0  0.68 0.1 0  0.7 0.1 0  0.72 0.1 0  0.74 0.1 0  0.76 0.1 0  0.78 0.1 0  0.8 0.1 0  0.82 0.1 0  0.84 0.1 0  0.86 0.1 0  0.88 0.1 0  0.9 0.1 0  0.92 0.1 0  0.9399999999999999 0.1 0  0.96 0.1 0  0.98 0.1 0  1 0.1 0  1.02 0.1 0  1.04 0.1 0  1.06 0.1 0  1.08 0.1 0  1.1 0.1 0  1.12 0.1 0  1.14 0.1 0  1.16 0.1 0  1.18 0.1 0  1.2 0.1 0  1.22 0.1 0  1.24 0.1 0  1.26 0.1 0  1.28 0.1 0  1.3 0.1 0  1.32 0.1 0  1.34 0.1 0  1.36 0.1 0  1.38 0.1 0  1.4 0.1 0  1.42 0.1 0  1.44 0.1 0  1.46 0.1 0  1.48 0.1 0  1.5 0.1 0  1.52 0.1 0  1.54 0.1 0  1.56 0.1 0  1.58 0.1 0  1.6 0.1 0  1.62 0.1 0  1.64 0.1 0  1.66 0.1 0  1.68 0.1 0  1.7 0.1 0  1.72 0.1 0  1.74 0.1 0  1.76 0.1 0  1.78 0.1 0  1.8 0.1 0  1.82 0.1 0  1.84 0.1 0  1.86 0.1 0  1.88 0.1 0  1.9 0.1 0  1.92 0.1 0  1.94 0.1 0  1.96 0.1 0  1.98 0.1 0  2 0.1 0  0 0.12 0  0.02 0.12 0  0.04 0.12 0  0.06 0.12 0  0.08 0.12 0  0.1 0.12 0  0.12 0.12 0  0.14 0.12 0  0.16 0.12 0  0.18 0.12 0  0.2 0.12 0  0.22 0.12 0  0.24 0.12 0  0.26 0.12 0  0.28 0.12 0  0.3 0.12 0  0.32 0.12 0  0.34 0.12 0  0.36 0.12 0  0.38 0.12 0  0.4 0.12 0  0.42 0.12 0  0.44 0.12 0  0.46 0.12 0  0.48 0.12 0  0.5 0.12 0  0.52 0.12 0  0.54 0.12 0  0.5600000000000001 0.12 0  0.58 0.12 0  0.6 0.12 0  0.62 0.12 0  0.64 0.12 0  0.66 0.12 0  0.68 0.12 0  0.7 0.12 0  0.72 0.12 0  0.74 0.12 0  0.76 0.12 0  0.78 0.12 0  0.8 0.12 0  0.82 0.12 0  0.84 0.12 0  0.86 0.12 0  0.88 0.12 0  0.9 0.12 0  0.92 0.12 0  0.9399999999999999 0.12 0  0.96 0.12 0  0.98 0.12 0  1 0.12 0  1.02 0.12 0  1.04 0.12 0  1.06 0.12 0  1.08 0.12 0  1.1 0.12 0  1.12 0.12 0  1.14 0.12 0  1.16 0.12 0  1.18 0.12 0  1.2 0.12 0  1.22 0.12 0  1.24 0.12 0  1.26 0.12 0  1.28 0.12 0  1.3 0.12 0  1.32 0.12 0  1.34 0.12 0  1.36 0.12 0  1.38 0.12 0  1.4 0.12 0  1.42 0.12 0  1.44 0.12 0  1.46 0.12 0  1.48 0.12 0  1.5 0.12 0  1.52 0.12 0  1.54 0.12 0  1.56 0.12 0  1.58 0.12 0  1.6 0.12 0  1.62 0.12 0  1.64 0.12 0  1.66 0.12 0  1.68 0.12 0  1.7 0.12 0  1.72 0.12 0  1.74 0.12 0  1.76 0.12 0  1.78 0.12 0  1.8 0.12 0  1.82 0.12 0  1.84 0.12 0  1.86 0.12 0  1.88 0.12 0  1.9 0.12 0  1.92 0.12 0  1.94 0.12 0  1.96 0.12 0  1.98 0.12 0  2 0.12 0  0 0.14 0  0.02 0.14 0  0.04 0.14 0  0.06 0.14 0  0.08 0.14 0  0.1 0.14 0  0.12 0.14 0  0.14 0.14 0  0.16 0.14 0  0.18 0.14 0  0.2 0.14 0  0.22 0.14 0  0.24 0.14 0  0.26 0.14 0  0.28 0.14 0  0.3 0.14 0  0.32 0.14 0  0.34 0.14 0  0.36 0.14 0  0.38 0.14 0  0.4 0.14 0  0.42 0.14 0  0.44 0.14 0  0.46 0.14 0  0.48 0.14 0  0.5 0.14 0  0.52 0.14 0  0.54 0.14 0  0.5600000000000001 0.14 0  0.58 0.14 0  0.6 0.14 0  0.62 0.14 0  0.64 0.14 0  0.66 0.14 0  0.68 0.14 0  0.7 0.14 0  0.72 0.14 0  0.74 0.14 0  0.76 0.14 0  0.78 0.14 0  0.8 0.14 0  0.82 0.14 0  0.84 0.14 0  0.86 0.14 0  0.88 0.14 0  0.9 0.14 0  0.92 0.14 0  0.9399999999999999 0.14 0  0.96 0.14 0  0.98 0.14 0  1 0.14 0  1.02 0.14 0  1.04 0.14 0  1.06 0.14 0  1.08 0.14 0  1.1 0.14 0  1.12 0.14 0  1.14 0.14 0  1.16 0.14 0  1.18 0.14 0  1.2 0.14 0  1.22 0.14 0  1.24 0.14 0  1.26 0.14 0  1.28 0.14 0  1.3 0.14 0  1.32 0.14 0  1.34 0.14 0  1.36 0.14 0  1.38 0.14 0  1.4 0.14 0  1.42 0.14 0  1.44 0.14 0  1.46 0.14 0  1.48 0.14 0  1
[...]
<PointData  Scalars="sols[i]"> 
<DataArray  type="Float64"  Name="sols[i]"  format="ascii">1.7890209981975887e-03  1.1932147435993216e-03  1.1932147435993220e-03  1.1932147435993223e-03  1.1932147435993233e-03  1.1932147435993251e-03  1.1932147435993268e-03  1.1932147435993311e-03  1.1932147435993377e-03  1.1932147435993468e-03  1.1932147435993624e-03  1.1932147435993856e-03  1.1932147435994188e-03  1.1932147435994695e-03  1.1932147435995456e-03  1.1932147435996508e-03  1.1932147435998004e-03  1.1932147436000131e-03  1.1932147436003013e-03  1.1932147436006920e-03  1.1932147436012157e-03  1.1932147436018988e-03  1.1932147436027802e-03  1.1932147436039011e-03  1.1932147436052945e-03  1.1932147436070032e-03  1.1932147436090636e-03  1.1932147436115070e-03  1.1932147436143651e-03  1.1932147436176513e-03  1.1932147436213942e-03  1.1932147436256187e-03  1.1932147436303502e-03  1.1932147436356242e-03  1.1932147436414943e-03  1.1932147436480136e-03  1.1932147436552695e-03  1.1932147436633611e-03  1.1932147436724025e-03  1.1932147436825218e-03  1.1932147436938660e-03  1.1932147437065772e-03  1.1932147437208301e-03  1.1932147437368151e-03  1.1932147437547635e-03  1.1932147437749925e-03  1.1932147437979839e-03  1.1932147438244816e-03  1.1932147438557001e-03  1.1932147438935333e-03  1.1932147439408344e-03  1.1932147440016905e-03  1.1932147440815906e-03  1.1932147441873497e-03  1.1932147443265955e-03  1.1932147445066555e-03  1.1932147447327739e-03  1.1932147450057584e-03  1.1932147453196425e-03  1.1932147456598947e-03  1.1932147460031654e-03  1.1932147463191965e-03  1.1932147465749559e-03  1.1932147467403613e-03  1.1932147467942280e-03  1.1932147467287508e-03  1.1932147465511405e-03  1.1932147462819101e-03  1.1932147459504220e-03  1.1932147455890802e-03  1.1932147452279618e-03  1.1932147448908978e-03  1.1932147445936634e-03  1.1932147443440666e-03  1.1932147441433079e-03  1.1932147439879430e-03  1.1932147438718571e-03  1.1932147437878986e-03  1.1932147437290245e-03  1.1932147436889699e-03  1.1932147436625382e-03  1.1932147436456463e-03  1.1932147436351747e-03  1.1932147436288668e-03  1.1932147436251083e-03  1.1932147436227757e-03  1.1932147436211238e-03  1.1932147436196873e-03  1.1932147436182049e-03  1.1932147436165656e-03  1.1932147436147578e-03  1.1932147436128332e-03  1.1932147436108755e-03  1.1932147436089851e-03  1.1932147436072226e-03  1.1932147436056692e-03  1.1932147436043764e-03  1.1932147436033741e-03  1.1932147436026902e-03  1.1932147436023591e-03  3.5741386317704013e-03  1.1932147435993216e-03  5.9689743526847902e-04  5.9689743526847912e-04  5.9689743526847956e-04  5.9689743526847988e-04  5.9689743526848108e-04  5.9689743526848238e-04  5.9689743526848476e-04  5.9689743526848899e-04  5.9689743526849441e-04  5.9689743526850384e-04  5.9689743526851837e-04  5.9689743526853941e-04  5.9689743526857096e-04  5.9689743526861823e-04  5.9689743526868567e-04  5.9689743526878097e-04  5.9689743526891638e-04  5.9689743526910222e-04  5.9689743526935429e-04  5.9689743526969332e-04  5.9689743527013915e-04  5.9689743527071573e-04  5.9689743527145190e-04  5.9689743527237228e-04  5.9689743527350364e-04  5.9689743527487234e-04  5.9689743527649951e-04  5.9689743527840543e-04  5.9689743528060278e-04  5.9689743528310577e-04  5.9689743528593185e-04  5.9689743528909707e-04  5.9689743529262431e-04  5.9689743529654728e-04  5.9689743530090447e-04  5.9689743530574977e-04  5.9689743531115278e-04  5.9689743531718940e-04  5.9689743532394691e-04  5.9689743533152320e-04  5.9689743534001804e-04  5.9689743534954199e-04  5.9689743536022030e-04  5.9689743537219683e-04  5.9689743538566436e-04  5.9689743540091214e-04  5.9689743541839349e-04  5.9689743543885141e-04  5.9689743546347820e-04  5.9689743549410626e-04  5.9689743553342398e-04  5.9689743558512959e-04  5.9689743565393728e-04  5.9689743574528739e-04  5.9689743586462899e-04  5.9689743601619438e-04  5.9689743620131778e-04  5.9689743641664077e-04  5.9689743665268687e-04  5.9689743689345705e-04  5.9689743711762507e-04  5.9689743730142813e-04  5.9689743742283373e-04  5.9689743746598552e-04  5.9689743742464630e-04  5.9689743730354048e-04  5.9689743711717036e-04  5.9689743688654429e-04  5.9689743663489511e-04  5.9689743638369295e-04  5.9689743614982956e-04  5.9689743594433303e-04  5.9689743577250065e-04  5.9689743563494098e-04  5.9689743552902180e-04  5.9689743545029983e-04  5.9689743539367845e-04  5.9689743535420352e-04  5.9689743532751372e-04  5.9689743531002521e-04  5.9689743529894000e-04  5.9689743529214650e-04  5.9689743528810980e-04  5.9689743528574678e-04  5.9689743528430349e-04  5.9689743528328163e-04  5.9689743528237144e-04  5.9689743528140195e-04  5.9689743528030235e-04  5.9689743527907135e-04  5.9689743527774992e-04  5.9689743527639944e-04  5.9689743527508929e-04  5.9689743527387238e-04  5.9689743527279523e-04  5.9689743527189696e-04  5.9689743527119614e-04  5.9689743527070792e-04  5.9689743527044739e-04  1.1932147436028513e-03  1.1932147435993220e-03  5.9689743526847923e-04  5.9689743526847967e-04  5.9689743526847999e-04  5.9689743526848086e-04  5.9689743526848281e-04  5.9689743526848520e-04  5.9689743526848942e-04  5.9689743526849669e-04  5.9689743526850731e-04  5.9689743526852423e-04  5.9689743526855079e-04  5.9689743526858993e-04  5.9689743526864902e-04  5.9689743526873727e-04  5.9689743526886434e-04  5.9689743526904551e-04  5.9689743526930312e-04  5.9689743526965928e-04  5.9689743527014587e-04  5.9689743527080246e-04  5.9689743527167026e-04  5.9689743527279913e-04  5.9689743527424459e-04  5.9689743527605900e-04  5.9689743527829636e-04  5.9689743528100751e-04  5.9689743528423529e-04  5.9689743528801666e-04  5.9689743529237733e-04  5.9689743529734243e-04  5.9689743530294038e-04  5.9689743530920122e-04  5.9689743531616884e-04  5.9689743532390625e-04  5.9689743533249443e-04  5.9689743534204159e-04  5.9689743535268477e-04  5.9689743536457912e-04  5.9689743537790147e-04  5.9689743539284590e-04  5.9689743540961341e-04  5.9689743542841824e-04  5.9689743544949166e-04  5.9689743547309258e-04  5.9689743549955665e-04  5.9689743552938002e-04  5.9689743556336000e-04  5.9689743560283764e-04  5.9689743565003416e-04  5.9689743570848035e-04  5.9689743578351451e-04  5.9689743588270221e-04  5.9689743601596637e-04  5.9689743619510932e-04  5.9689743643237276e-04  5.9689743673779815e-04  5.9689743711545970e-04  5.9689743755925628e-04  5.9689743804945087e-04  5.9689743855154045e-04  5.9689743901883191e-04  5.9689743939906606e-04  5.9689743964407168e-04  5.9689743972003652e-04  5.9689743961527646e-04  5.9689743934286795e-04  5.9689743893723887e-04  5.9689743844602882e-04  5.9689743792005947e-04  5.9689743740449813e-04  5.9689743693316509e-04  5.9689743652652000e-04  5.9689743619270738e-04  5.9689743593038260e-04  5.9689743573211401e-04  5.9689743558747742e-04  5.9689743548538884e-04  5.9689743541558248e-04  5.9689743536934820e-04  5.9689743533974070e-04  5.9689743532147341e-04  5.9689743531064754e-04  5.9689743530447583e-04  5.9689743530101473e-04  5.9689743529893566e-04  5.9689743529737431e-04  5.9689743529580991e-04  5.9689743529397620e-04  5.9689743529178969e-04  5.9689743528929104e-04  5.9689743528659430e-04  5.9689743528384541e-04  5.9689743528119205e-04  5.9689743527875129e-04  5.9689743527661379e-04  5.9689743527484567e-04  5.9689743527347762e-04  5.9689743527253101e-04  5.9689743527202859e-04  1.1932147436054265e-03  1.1932147435993229e-03  5.9689743526847978e-04  5.9689743526848032e-04  5.9689743526848151e-04  5.9689743526848314e-04  5.9689743526848661e-04  5.9689743526849148e-04  5.9689743526849983e-04  5.9689743526851425e-04  5.9689743526853561e-04  5.9689743526857020e-04  5.9689743526862387e-04  5.9689743526870518e-04  5.9689743526882748e-04  5.9689743526901082e-04  5.9689743526927753e-04  5.9689743526966112e-04  5.9689743527020702e-04  5.9689743527096845e-04  5.9689743527201460e-04  5.9689743527343165e-04  5.9689743527531610e-04  5.9689743527777963e-04  5.9689743528094550e-04  5.9689743528493623e-04  5.9689743528987347e-04  5.9689743529587030e-04  5.9689743530302094e-04  5.9689743531140377e-04  5.9689743532107442e-04  5.9689743533208244e-04  5.9689743534447985e-04  5.9689743535832837e-04  5.9689743537371981e-04  5.9689743539078949e-04  5.9689743540972020e-04  5.9689743543075459e-04  5.9689743545419721e-04  5.9689743548039988e-04  5.9689743550976160e-04  5.9689743554271581e-04  5.9689743557971280e-04  5.9689743562121931e-04  5.9689743566771923e-04  5.9689743571973394e-04  5.9689743577790659e-04  5.9689743584316927e-04  5.9689743591704605e-04  5.9689743600217467e-04  5.9689743610307898e-04  5.9689743622721135e-04  5.9689743638620895e-04  5.9689743659708291e-04  5.9689743688283415e-04  5.9689743727169399e-04  5.9689743779402530e-04  5.9689743847612465e-04  5.9689743933093620e-04  5.9689744034718980e-04  5.9689744148007731e-04  5.9689744264768694e-04  5.9689744373693380e-04  5.9689744462013768e-04  5.9689744517966211e-04  5.9689744533426370e-04  5.9689744505877801e-04  5.9689744439006521e-04  5.9689744341697847e-04  5.9689744225838854e-04  5.9689744103732666e-04  5.9689743985934685e-04  5.9689743879982394e-04  5.9689743790082149e-04  5.9689743717524022e-04  5.9689743661473914e-04  5.9689743619836062e-04  5.9689743589985700e-04  5.9689743569286253e-04  5.9689743555390272e-04  5.9689743546367910e-04  5.9689743540720670e-04  5.9689743537333156e-04  5.9689743535399156e-04  5.9689743534350158e-04  5.9689743533793995e-04  5.9689743533466045e-04  5.9689743533196816e-04  5.9689743532887385e-04  5.9689743532491347e-04  5.9689743532000399e-04  5.9689743531431627e-04  5.9689743530816526e-04  5.9689743530191668e-04  5.9689743529591985e-04  5.9689743529044951e-04  5.9689743528570352e-04  5.9689743528180635e-04  5.9689743527881266e-04  5.9689743527675083e-04  5.9689743527565568e-04  1.1932147436115143e-03  1.1932147435993249e-03  5.9689743526848075e-04  5.9689743526848173e-04  5.9689743526848400e-04  5.9689743526848758e-04  5.9689743526849409e-04  5.9689743526850439e-04  5.9689743526852163e-04  5.9689743526855036e-04  5.9689743526859503e-04  5.9689743526866669e-04  5.9689743526877912e-04  5.9689743526895086e-04  5.9689743526921172e-04  5.9689743526960301e-04  5.9689743527017785e-04  5.9689743527100998e-04  5.9689743527219924e-04  5.9689743527386859e-04  5.9689743527617533e-04  5.9689743527931388e-04  5.9689743528350953e-04  5.9689743528902096e-04  5.9689743529613246e-04  5.9689743530513231e-04  5.9689743531630339e-04  5.9689743532990417e-04  5.9689743534614942e-04  5.9689743536520882e-04  5.9689743538720327e-04  5.9689743541222926e-04  5.9689743544038610e-04  5.9689743547179956e-04  5.9689743550666717e-04  5.9689743554528765e-04  5.9689743558807927e-04  5.9689743563560017e-04  5.9689743568854816e-04  5.9689743574773920e-04  5.9689743581409454e-04  5.9689743588861089e-04  5.9689743597232236e-04  5.9689743606627910e-04  5.9689743617153529e-04  5.9689743628917459e-04  5.9689743642045629e-04  5.9689743656714776e-04  5.9689743673216897e-04  5.9689743692073580e-04  5.9689743714214257e-04  5.9689743741228574e-04  5.9689743775685007e-04  5.9689743821460858e-04  5.9689743883964582e-04  5.9689743970048760e-04  5.9689744087350935e-04  5.9689744242826480e-04  5.9689744440423367e-04  5.9689744678237551e-04  5.9689744945960060e-04  5.9689745223765736e-04  5.9689745483686998e-04  5.9689745693837645e-04  5.9689745824824674e-04  5.9689745856654193e-04  5.9689745783844976e-04  5.9689745616787798e-04  5.9689745378789267e-04  5.9689745100041528e-04  5.9689744810845506e-04  5.9689744536255780e-04  5.9689744293262036e-04  5.9689744090470217e-04  5.9689743929518366e-04  5.9689743807262634e-04  5.9689743717961867e-04  5.9689743655015148e-04  5.9689743612107013e-04  5.9689743583811580e-04  5.9689743565796206e-04  5.9689743554779053e-04  5.9689743548367190e-04  5.9689743544860446e-04  5.9689743543074407e-04  5.9689743542198415e-04  5.9689743541690911e-04  5.9689743541209623e-04  5.9689743540561682e-04  5.9689743539666554e-04  5.9689743538525431e-04  5.9689743537193413e-04  5.9689743535754525e-04  5.9689743534300393e-04  5.9689743532914533e-04  5.9689743531661282e-04  5.9689743530583867e-04  5.9689743529706292e-04  5.9689743529037068e-04  5.9689743528578375e-04  5.9689743528334137e-04  1.1932147436244476e-03  1.1932147435993294e-03  5.9689743526848303e-04  5.9689743526848520e-04  5.9689743526848942e-04  5.9689743526849680e-04  5.9689743526850937e-04  5.9689743526853062e-04  5.9689743526856597e-04  5.9689743526862441e-04  5.9689743526871776e-04  5.9689743526886738e-04  5.9689743526910341e-04  5.9689743526946835e-04  5.9689743527002617e-04  5.9689743527086697e-04  5.9689743527211142e-04  5.9689743527392486e-04  5.9689743527652954e-04  5.9689743528020672e-04  5.9689743528531646e-04  5.9689743529230252e-04  5.9689743530168976e-04  5.9689743531408067e-04  5.9689743533013738e-04  5.9689743535053989e-04  5.9689743537594991e-04  5.9689743540696481e-04  5.9689743544407586e-04  5.9689743548765461e-04  5.9689743553795584e-04  5.9689743559516409e-04  5.9689743565946238e-04  5.9689743573110461e-04  5.9689743581051277e-04  5.9689743589835267e-04  5.9689743599558370e-04  5.9689743610349532e-04  5.9689743622370211e-04  5.9689743635810459e-04  5.9689743650884295e-04  5.9689743667822655e-04  5.9689743686864747e-04  5.9689743708250082e-04  5.9689743732212175e-04  5.9689743758979598e-04  5.9689743788799170e-04  5.9689743821999609e-04  5.9689743859125976e-04  5.9689743901187870e-04  5.9689743950065764e-04  5.9689744009114006e-04  5.9689744083960298e-04  5.9689744183400221e-04  5.9689744320116597e-04  5.9689744510722548e-04  5.9689744774420270e-04  5.9689745129562271e-04  5.9689745587830818e-04  5.9689746146767591e-04  5.9689746782759371e-04  5.9689747447632942e-04  5.9689748071802202e-04  5.9689748575080816e-04  5.9689748883469407e-04  5.9689748947404841e-04  5.9689748755182355e-04  5.9689748336027063e-04  5.9689747751373102e-04  5.9689747078213885e-04  5.9689746391287653e-04  5.9689745749908678e-04  5.9689745191953423e-04  5.9689744734307739e-04  5.9689744377356324e-04  5.9689744110898743e-04  5.9689743919605256e-04  5.9689743787071201e-04  5.9689743698290287e-04  5.9689743640804218e-04  5.9689743604944372e-04  5.9689743583561888e-04  5.9689743571547172e-04  5.9689743565325586e-04  5.9689743562431406e-04  5.9689743561186731e-04  5.9689743560478064e-04  5.9689743559611028e-04  5.9689743558210087e-04  5.9689743556143055e-04  5.9689743553455426e-04  5.9689743550308291e-04  5.9689743546920636e-04  5.9689743543519765e-04  5.9689743540304911e-04  5.9689743537424608e-04  5.9689743534972273e-04  5.9689743532992639e-04  5.9689743531495063e-04  5.9689743530473972e-04  5.9689743529929117e-04  1.1932147436512319e-03  1.1932147435993355e-03  5.9689743526848671e-04  5.9689743526849116e-04  5.9689743526849918e-04  5.9689743526851393e-04  5.9689743526853941e-04  5.9689743526858223e-04  5.9689743526865422e-04  5.9689743526877370e-04  5.9689743526896734e-04  5.9689743526927959e-04  5.9689743526977561e-04  5.9689743527054930e-04  5.9689743527174062e-04  5.9689743527354744e-04  5.9689743527624039e-04  5.9689743528019068e-04  5.9689743528589521e-04  5.9689743529399604e-04  5.9689743530531359e-04  5.9689743532086788e-04  5.9689743534187636e-04  5.9689743536974588e-04  5.9689743540602665e-04  5.9689743545232046e-04  5.9689743551018216e-04  5.9689743558100018e-04  5.9689743566589766e-04  5.9689743576568904e-04  5.9689743588089571e-04  5.9689743601185378e-04  5.9689743615888005e-04  5.9689743632247000e-04  5.9689743650352006e-04  5.9689743670351600e-04  5.9689743692465963e-04  5.9689743716993576e-04  5.9689743744309627e-04  5.9689743774857067e-04  5.9689743809134173e-04  5.9689743847677907e-04  5.9689743891043316e-04  5.9689743939781142e-04  5.9689743994415965e-04  5.9689744055435947e-04  5.9689744123323743e-04  5.9689744198672076e-04  5.9689744282455056e-04  5.9689744376558156e-04  5.9689744484689217e-04  5.9689744613795892e-04  5.9689744776043841e-04  5.9689744991191457e-04  5.9689745288775311e-04  5.9689745708886013e-04  5.9689746299651633e-04  5.9689747109317932e-04  5.9689748171737301e-04  5.9689749486733416e-04  5.9689751000779911e-04  5.9689752596700681e-04  5.9689754100744814e-04  5.9689755310335781e-04  5.9689756038174945e-04  5.9689756160771561e-04  5.9689755654030005e-04  5.9689754600040720e-04  5.9689753161291644e-04  5.9689751534446316e-04  5.9689749903510327e-04  5.9689748407859653e-04  5.9689747130288570e-04  5.9689746101505316e-04  5.9689745313700956e-04  5.9689744736251887e-04  5.9689744329104806e-04  5.9689744052025665e-04  5.9689743869746419e-04  5.9689743753957173e-04  5.9689743683301669e-04  5.9689743642364645e-04  5.9689743620338644e-04  5.9689743609766274e-04  5.9689743605541659e-04  5.9689743604199720e-04  5.9689743603449647e-04  5.9689743601882108e-04  5.9689743598772898e-04  5.9689743593929734e-04  5.9689743587550657e-04  5.9689743580082944e-04  5.9689743572088059e-04  5.9689743564125201e-04  5.9689743556666963e-04  5.9689743550051975e-04  5.9689743544478005e-04  5.9689743540022812e-04  5.9689743536681930e-04  5.9689743534417736e-04  5.9689743533207983e-04  1.1932147437061179e-03  1.1932147435993498e-03  5.9689743526849441e-04  5.9689743526850265e-04  5.9689743526851870e-04  5.9689743526854775e-04  5.9689743526859860e-04  5.9689743526868512e-04  5.9689743526883127e-04  5.9689743526907500e-04  5.9689743526947507e-04  5.9689743527012429e-04  5.9689743527116339e-04  5.9689743527279945e-04  5.9689743527533768e-04  5.9689743527921316e-04  5.9689743528503121e-04  5.9689743529362166e-04  5.9689743530609953e-04  5.9689743532392251e-04  5.9689743534896216e-04  5.9689743538355862e-04  5.9689743543053688e-04  5.9689743549318295e-04  5.9689743557513389e-04  5.9689743568017151e-04  5.9689743581195530e-04  5.9689743597372553e-04  5.9689743616805045e-04  5.9689743639670934e-04  5.9689743666073880e-04  5.9689743696069158e-04  5.9689743729704969e-04  5.9689743767073113e-04  5.9689743808362503e-04  5.9689743853904946e-04  5.9689743904205791e-04  5.9689743959957559e-04  5.9689744022033999e-04  5.9689744091468019e-04  5.9689744169420680e-04  5.9689744257142307e-04  5.9689744355924466e-04  5.9689744467042417e-04  5.9689744591689302e-04  5.9689744730924345e-04  5.9689744885693067e-04  5.9689745057019486e-04  5.9689745246533699e-04  5.9689745457576113e-04  5.9689745697200330e-04  5.9689745979445770e-04  5.9689746330153146e-04  5.9689746793147177e-04  5.9689747436595135e-04  5.9689748356651310e-04  5.9689749673458639e-04  5.9689751513371952e-04  5.9689753973016376e-04  5.9689757067645335e-04  5.9689760677760048e-04  5.9689764518243383e-04  5.9689768153872399e-04  5.9689771070678031e-04  5.9689772792064649e-04  5.9689773008657072e-04  5.9689771673803718e-04  5.9689769018135661e-04  5.9689765472936012e-04  5.9689761541065602e-04  5.9689757674028930e-04  5.9689754195858889e-04  5.9689751282468201e-04  5.9689748981996257e-04  5.9689747254362921e-04  5.9689746012122171e-04  5.9689745152623501e-04  5.9689744578511909e-04  5.9689744207890136e-04  5.9689743977180089e-04  5.9689743839766191e-04  5.9689743762797237e-04  5.9689743723663512e-04  5.9689743706944291e-04  5.9689743702123364e-04  5.9689743702056144e-04  5.9689743702022230e-04  5.9689743699159210e-04  5.9689743692088607e-04  5.9689743680607708e-04  5.9689743665379948e-04  5.9689743647608725e-04  5.9689743628716686e-04  5.9689743610069699e-04  5.9689743592781586e-04  5.9689743577615083e-04  5.9689743564977677e-04  5.9689743554985290e-04  5.9689743547563915e-04  5.9689743542568649e-04  5.9689743539898779e-04  1.1932147438177112e-03  1.1932147435993760e-03  5.9689743526850905e-04  5.9689743526852510e-04  5.9689743526855675e-04  5.9689743526861411e-04  5.9689743526871483e-04  5.9689743526888787e-04  5.9689743526918321e-04  5.9689743526967934e-04  5.9689743527050073e-04  5.9689743527184590e-04  5.9689743527401625e-04  5.9689743527746326e-04  5.9689743528285424e-04  5.9689743529114773e-04  5.9689743530368902e-04  5.9689743532233221e-04  5.9689743534957983e-04  5.9689743538873016e-04  5.9689743544404518e-04  5.9689743552089353e-04  5.96897435625