<?xml version="1.0"?>
<VTKFile type="UnstructuredGrid"  version="0.1"  >
<UnstructuredGrid>
<Piece  NumberOfPoints="5151" NumberOfCells="10000">
<Points>
<DataArray  type="Float64"  NumberOfComponents="3"  format="ascii">0 0 0  0.02 0 0  0.04 0 0  0.06 0 0  0.08 0 0  0.1 0 0  0.12 0 0  0.14 0 0  0.16 0 0  0.18 0 0  0.2 0 0  0.22 0 0  0.24 0 0  0.26 0 0  0.28 0 0  0.3 0 0  0.32 0 0  0.34 0 0  0.36 0 0  0.38 0 0  0.4 0 0  0.42 0 0  0.44 0 0  0.46 0 0  0.48 0 0  0.5 0 0  0.52 0 0  0.54 0 0  0.5600000000000001 0 0  0.58 0 0  0.6 0 0  0.62 0 0  0.64 0 0  0.66 0 0  0.68 0 0  0.7 0 0  0.72 0 0  0.74 0 0  0.76 0 0  0.78 0 0  0.8 0 0  0.82 0 0  0.84 0 0  0.86 0 0  0.88 0 0  0.9 0 0  0.92 0 0  0.9399999999999999 0 0  0.96 0 0  0.98 0 0  1 0 0  1.02 0 0  1.04 0 0  1.06 0 0  1.08 0 0  1.1 0 0  1.12 0 0  1.14 0 0  1.16 0 0  1.18 0 0  1.2 0 0  1.22 0 0  1.24 0 0  1.26 0 0  1.28 0 0  1.3 0 0  1.32 0 0  1.34 0 0  1.36 0 0  1.38 0 0  1.4 0 0  1.42 0 0  1.44 0 0  1.46 0 0  1.48 0 0  1.5 0 0  1.52 0 0  1.54 0 0  1.56 0 0  1.58 0 0  1.6 0 0  1.62 0 0  1.64 0 0  1.66 0 0  1.68 0 0  1.7 0 0  1.72 0 0  1.74 0 0  1.76 0 0  1.78 0 0  1.8 0 0  1.82 0 0  1.84 0 0  1.86 0 0  1.88 0 0  1.9 0 0  1.92 0 0  1.94 0 0  1.96 0 0  1.98 0 0  2 0 0  0 0.02 0  0.02 0.02 0  0.04 0.02 0  0.06 0.02 0  0.08 0.02 0  0.1 0.02 0  0.12 0.02 0  0.14 0.02 0  0.16 0.02 0  0.18 0.02 0  0.2 0.02 0  0.22 0.02 0  0.24 0.02 0  0.26 0.02 0  0.28 0.02 0  0.3 0.02 0  0.32 0.02 0  0.34 0.02 0  0.36 0.02 0  0.38 0.02 0  0.4 0.02 0  0.42 0.02 0  0.44 0.02 0  0.46 0.02 0  0.48 0.02 0  0.5 0.02 0  0.52 0.02 0  0.54 0.02 0  0.5600000000000001 0.02 0  0.58 0.02 0  0.6 0.02 0  0.62 0.02 0  0.64 0.02 0  0.66 0.02 0  0.68 0.02 0  0.7 0.02 0  0.72 0.02 0  0.74 0.02 0  0.76 0.02 0  0.78 0.02 0  0.8 0.02 0  0.82 0.02 0  0.84 0.02 0  0.86 0.02 0  0.88 0.02 0  0.9 0.02 0  0.92 0.02 0  0.9399999999999999 0.02 0  0.96 0.02 0  0.98 0.02 0  1 0.02 0  1.02 0.02 0  1.04 0.02 0  1.06 0.02 0  1.08 0.02 0  1.1 0.02 0  1.12 0.02 0  1.14 0.02 0  1.16 0.02 0  1.18 0.02 0  1.2 0.02 0  1.22 0.02 0  1.24 0.02 0  1.26 0.02 0  1.28 0.02 0  1.3 0.02 0  1.32 0.02 0  1.34 0.02 0  1.36 0.02 0  1.38 0.02 0  1.4 0.02 0  1.42 0.02 0  1.44 0.02 0  1.46 0.02 0  1.48 0.02 0  1.5 0.02 0  1.52 0.02 0  1.54 0.02 0  1.56 0.02 0  1.58 0.02 0  1.6 0.02 0  1.62 0.02 0  1.64 0.02 0  1.66 0.02 0  1.68 0.02 0  1.7 0.02 0  1.72 0.02 0  1.74 0.02 0  1.76 0.02 0  1.78 0.02 0  1.8 0.02 0  1.82 0.02 0  1.84 0.02 0  1.86 0.02 0  1.88 0.02 0  1.9 0.02 0  1.92 0.02 0  1.94 0.02 0  1.96 0.02 0  1.98 0.02 0  2 0.02 0  0 0.04 0  0.02 0.04 0  0.04 0.04 0  0.06 0.04 0  0.08 0.04 0  0.1 0.04 0  0.12 0.04 0  0.14 0.04 0  0.16 0.04 0  0.18 0.04 0  0.2 0.04 0  0.22 0.04 0  0.24 0.04 0  0.26 0.04 0  0.28 0.04 0  0.3 0.04 0  0.32 0.04 0  0.34 0.04 0  0.36 0.04 0  0.38 0.04 0  0.4 0.04 0  0.42 0.04 0  0.44 0.04 0  0.46 0.04 0  0.48 0.04 0  0.5 0.04 0  0.52 0.04 0  0.54 0.04 0  0.5600000000000001 0.04 0  0.58 0.04 0  0.6 0.04 0  0.62 0.04 0  0.64 0.04 0  0.66 0.04 0  0.68 0.04 0  0.7 0.04 0  0.72 0.04 0  0.74 0.04 0  0.76 0.04 0  0.78 0.04 0  0.8 0.04 0  0.82 0.04 0  0.84 0.04 0  0.86 0.04 0  0.88 0.04 0  0.9 0.04 0  0.92 0.04 0  0.9399999999999999 0.04 0  0.96 0.04 0  0.98 0.04 0  1 0.04 0  1.02 0.04 0  1.04 0.04 0  1.06 0.04 0  1.08 0.04 0  1.1 0.04 0  1.12 0.04 0  1.14 0.04 0  1.16 0.04 0  1.18 0.04 0  1.2 0.04 0  1.22 0.04 0  1.24 0.04 0  1.26 0.04 0  1.28 0.04 0  1.3 0.04 0  1.32 0.04 0  1.34 0.04 0  1.36 0.04 0  1.38 0.04 0  1.4 0.04 0  1.42 0.04 0  1.44 0.04 0  1.46 0.04 0  1.48 0.04 0  1.5 0.04 0  1.52 0.04 0  1.54 0.04 0  1.56 0.04 0  1.58 0.04 0  1.6 0.04 0  1.62 0.04 0  1.64 0.04 0  1.66 0.04 0  1.68 0.04 0  1.7 0.04 0  1.72 0.04 0  1.74 0.04 0  1.76 0.04 0  1.78 0.04 0  1.8 0.04 0  1.82 0.04 0  1.84 0.04 0  1.86 0.04 0  1.88 0.04 0  1.9 0.04 0  1.92 0.04 0  1.94 0.04 0  1.96 0.04 0  1.98 0.04 0  2 0.04 0  0 0.06 0  0.02 0.06 0  0.04 0.06 0  0.06 0.06 0  0.08 0.06 0  0.1 0.06 0  0.12 0.06 0  0.14 0.06 0  0.16 0.06 0  0.18 0.06 0  0.2 0.06 0  0.22 0.06 0  0.24 0.06 0  0.26 0.06 0  0.28 0.06 0  0.3 0.06 0  0.32 0.06 0  0.34 0.06 0  0.36 0.06 0  0.38 0.06 0  0.4 0.06 0  0.42 0.06 0  0.44 0.06 0  0.46 0.06 0  0.48 0.06 0  0.5 0.06 0  0.52 0.06 0  0.54 0.06 0  0.5600000000000001 0.06 0  0.58 0.06 0  0.6 0.06 0  0.62 0.06 0  0.64 0.06 0  0.66 0.06 0  0.68 0.06 0  0.7 0.06 0  0.72 0.06 0  0.74 0.06 0  0.76 0.06 0  0.78 0.06 0  0.8 0.06 0  0.82 0.06 0  0.84 0.06 0  0.86 0.06 0  0.88 0.06 0  0.9 0.06 0  0.92 0.06 0  0.9399999999999999 0.06 0  0.96 0.06 0  0.98 0.06 0  1 0.06 0  1.02 0.06 0  1.04 0.06 0  1.06 0.06 0  1.08 0.06 0  1.1 0.06 0  1.12 0.06 0  1.14 0.06 0  1.16 0.06 0  1.18 0.06 0  1.2 0.06 0  1.22 0.06 0  1.24 0.06 0  1.26 0.06 0  1.28 0.06 0  1.3 0.06 0  1.32 0.06 0  1.34 0.06 0  1.36 0.06 0  1.38 0.06 0  1.4 0.06 0  1.42 0.06 0  1.44 0.06 0  1.46 0.06 0  1.48 0.06 0  1.5 0.06 0  1.52 0.06 0  1.54 0.06 0  1.56 0.06 0  1.58 0.06 0  1.6 0.06 0  1.62 0.06 0  1.64 0.06 0  1.66 0.06 0  1.68 0.06 0  1.7 0.06 0  1.72 0.06 0  1.74 0.06 0  1.76 0.06 0  1.78 0.06 0  1.8 0.06 0  1.82 0.06 0  1.84 0.06 0  1.86 0.06 0  1.88 0.06 0  1.9 0.06 0  1.92 0.06 0  1.94 0.06 0  1.96 0.06 0  1.98 0.06 0  2 0.06 0  0 0.08 0  0.02 0.08 0  0.04 0.08 0  0.06 0.08 0  0.08 0.08 0  0.1 0.08 0  0.12 0.08 0  0.14 0.08 0  0.16 0.08 0  0.18 0.08 0  0.2 0.08 0  0.22 0.08 0  0.24 0.08 0  0.26 0.08 0  0.28 0.08 0  0.3 0.08 0  0.32 0.08 0  0.34 0.08 0  0.36 0.08 0  0.38 0.08 0  0.4 0.08 0  0.42 0.08 0  0.44 0.08 0  0.46 0.08 0  0.48 0.08 0  0.5 0.08 0  0.52 0.08 0  0.54 0.08 0  0.5600000000000001 0.08 0  0.58 0.08 0  0.6 0.08 0  0.62 0.08 0  0.64 0.08 0  0.66 0.08 0  0.68 0.08 0  0.7 0.08 0  0.72 0.08 0  0.74 0.08 0  0.76 0.08 0  0.78 0.08 0  0.8 0.08 0  0.82 0.08 0  0.84 0.08 0  0.86 0.08 0  0.88 0.08 0  0.9 0.08 0  0.92 0.08 0  0.9399999999999999 0.08 0  0.96 0.08 0  0.98 0.08 0  1 0.08 0  1.02 0.08 0  1.04 0.08 0  1.06 0.08 0  1.08 0.08 0  1.1 0.08 0  1.12 0.08 0  1.14 0.08 0  1.16 0.08 0  1.18 0.08 0  1.2 0.08 0  1.22 0.08 0  1.24 0.08 0  1.26 0.08 0  1.28 0.08 0  1.3 0.08 0  1.32 0.08 0  1.34 0.08 0  1.36 0.08 0  1.38 0.08 0  1.4 0.08 0  1.42 0.08 0  1.44 0.08 0  1.46 0.08 0  1.48 0.08 0  1.5 0.08 0  1.52 0.08 0  1.54 0.08 0  1.56 0.08 0  1.58 0.08 0  1.6 0.08 0  1.62 0.08 0  1.64 0.08 0  1.66 0.08 0  1.68 0.08 0  1.7 0.08 0  1.72 0.08 0  1.74 0.08 0  1.76 0.08 0  1.78 0.08 0  1.8 0.08 0  1.82 0.08 0  1.84 0.08 0  1.86 0.08 0  1.88 0.08 0  1.9 0.08 0  1.92 0.08 0  1.94 0.08 0  1.96 0.08 0  1.98 0.08 0  2 0.08 0  0 0.1 0  0.02 0.1 0  0.04 0.1 0  0.06 0.1 0  0.08 0.1 0  0.1 0.1 0  0.12 0.1 0  0.14 0.1 0  0.16 0.1 0  0.18 0.1 0  0.2 0.1 0  0.22 0.1 0  0.24 0.1 0  0.26 0.1 0  0.28 0.1 0  0.3 0.1 0  0.32 0.1 0  0.34 0.1 0  0.36 0.1 0  0.38 0.1 0  0.4 0.1 0  0.42 0.1 0  0.44 0.1 0  0.46 0.1 0  0.48 0.1 0  0.5 0.1 0  0.52 0.1 0  0.54 0.1 0  0.5600000000000001 0.1 0  0.58 0.1 0  0.6 0.1 0  0.62 0.1 0  0.64 0.1 0  0.66 0.1 0  0.68 0.1 0  0.7 0.1 0  0.72 0.1 0  0.74 0.1 0  0.76 0.1 0  0.78 0.1 0  0.8 0.1 0  0.82 0.1 0  0.84 0.1 0  0.86 0.1 0  0.88 0.1 0  0.9 0.1 0  0.92 0.1 0  0.9399999999999999 0.1 0  0.96 0.1 0  0.98 0.1 0  1 0.1 0  1.02 0.1 0  1.04 0.1 0  1.06 0.1 0  1.08 0.1 0  1.1 0.1 0  1.12 0.1 0  1.14 0.1 0  1.16 0.1 0  1.18 0.1 0  1.2 0.1 0  1.22 0.1 0  1.24 0.1 0  1.26 0.1 0  1.28 0.1 0  1.3 0.1 0  1.32 0.1 0  1.34 0.1 0  1.36 0.1 0  1.38 0.1 0  1.4 0.1 0  1.42 0.1 0  1.44 0.1 0  1.46 0.1 0  1.48 0.1 0  1.5 0.1 0  1.52 0.1 0  1.54 0.1 0  1.56 0.1 0  1.58 0.1 0  1.6 0.1 0  1.62 0.1 0  1.64 0.1 0  1.66 0.1 0  1.68 0.1 0  1.7 0.1 0  1.72 0.1 0  1.74 0.1 0  1.76 0.1 0  1.78 0.1 0  1.8 0.1 0  1.82 0.1 0  1.84 0.1 0  1.86 0.1 0  1.88 0.1 0  1.9 0.1 0  1.92 0.1 0  1.94 0.1 0  1.96 0.1 0  1.98 0.1 0  2 0.1 0  0 0.12 0  0.02 0.12 0  0.04 0.12 0  0.06 0.12 0  0.08 0.12 0  0.1 0.12 0  0.12 0.12 0  0.14 0.12 0  0.16 0.12 0  0.18 0.12 0  0.2 0.12 0  0.22 0.12 0  0.24 0.12 0  0.26 0.12 0  0.28 0.12 0  0.3 0.12 0  0.32 0.12 0  0.34 0.12 0  0.36 0.12 0  0.38 0.12 0  0.4 0.12 0  0.42 0.12 0  0.44 0.12 0  0.46 0.12 0  0.48 0.12 0  0.5 0.12 0  0.52 0.12 0  0.54 0.12 0  0.5600000000000001 0.12 0  0.58 0.12 0  0.6 0.12 0  0.62 0.12 0  0.64 0.12 0  0.66 0.12 0  0.68 0.12 0  0.7 0.12 0  0.72 0.12 0  0.74 0.12 0  0.76 0.12 0  0.78 0.12 0  0.8 0.12 0  0.82 0.12 0  0.84 0.12 0  0.86 0.12 0  0.88 0.12 0  0.9 0.12 0  0.92 0.12 0  0.9399999999999999 0.12 0  0.96 0.12 0  0.98 0.12 0  1 0.12 0  1.02 0.12 0  1.04 0.12 0  1.06 0.12 0  1.08 0.12 0  1.1 0.12 0  1.12 0.12 0  1.14 0.12 0  1.16 0.12 0  1.18 0.12 0  1.2 0.12 0  1.22 0.12 0  1.24 0.12 0  1.26 0.12 0  1.28 0.12 0  1.3 0.12 0  1.32 0.12 0  1.34 0.12 0  1.36 0.12 0  1.38 0.12 0  1.4 0.12 0  1.42 0.12 0  1.44 0.12 0  1.46 0.12 0  1.48 0.12 0  1.5 0.12 0  1.52 0.12 0  1.54 0.12 0  1.56 0.12 0  1.58 0.12 0  1.6 0.12 0  1.62 0.12 0  1.64 0.12 0  1.66 0.12 0  1.68 0.12 0  1.7 0.12 0  1.72 0.12 0  1.74 0.12 0  1.76 0.12 0  1.78 0.12 0  1.8 0.12 0  1.82 0.12 0  1.84 0.12 0  1.86 0.12 0  1.88 0.12 0  1.9 0.12 0  1.92 0.12 0  1.94 0.12 0  1.96 0.12 0  1.98 0.12 0  2 0.12 0  0 0.14 0  0.02 0.14 0  0.04 0.14 0  0.06 0.14 0  0.08 0.14 0  0.1 0.14 0  0.12 0.14 0  0.14 0.14 0  0.16 0.14 0  0.18 0.14 0  0.2 0.14 0  0.22 0.14 0  0.24 0.14 0  0.26 0.14 0  0.28 0.14 0  0.3 0.14 0  0.32 0.14 0  0.34 0.14 0  0.36 0.14 0  0.38 0.14 0  0.4 0.14 0  0.42 0.14 0  0.44 0.14 0  0.46 0.14 0  0.48 0.14 0  0.5 0.14 0  0.52 0.14 0  0.54 0.14 0  0.5600000000000001 0.14 0  0.58 0.14 0  0.6 0.14 0  0.62 0.14 0  0.64 0.14 0  0.66 0.14 0  0.68 0.14 0  0.7 0.14 0  0.72 0.14 0  0.74 0.14 0  0.76 0.14 0  0.78 0.14 0  0.8 0.14 0  0.82 0.14 0  0.84 0.14 0  0.86 0.14 0  0.88 0.14 0  0.9 0.14 0  0.92 0.14 0  0.9399999999999999 0.14 0  0.96 0.14 0  0.98 0.14 0  1 0.14 0  1.02 0.14 0  1.04 0.14 0  1.06 0.14 0  1.08 0.14 0  1.1 0.14 0  1.12 0.14 0  1.14 0.14 0  1.16 0.14 0  1.18 0.14 0  1.2 0.14 0  1.22 0.14 0  1.24 0.14 0  1.26 0.14 0  1.28 0.14 0  1.3 0.14 0  1.32 0.14 0  1.34 0.14 0  1.36 0.14 0  1.38 0.14 0  1.4 0.14 0  1.42 0.14 0  1.44 0.14 0  1.46 0.14 0  1.48 0.14 0  1
[...]
<PointData  Scalars="sols[i]"> 
<DataArray  type="Float64"  Name="sols[i]"  format="ascii">1.3959807822074913e-03  9.3138889230125785e-04  9.3138889230125795e-04  9.3138889230125785e-04  9.3138889230125806e-04  9.3138889230125915e-04  9.3138889230125936e-04  9.3138889230126153e-04  9.3138889230126479e-04  9.3138889230126912e-04  9.3138889230127801e-04  9.3138889230129211e-04  9.3138889230131347e-04  9.3138889230134751e-04  9.3138889230140139e-04  9.3138889230147859e-04  9.3138889230159167e-04  9.3138889230175636e-04  9.3138889230198437e-04  9.3138889230229825e-04  9.3138889230272401e-04  9.3138889230328389e-04  9.3138889230401020e-04  9.3138889230493654e-04  9.3138889230608992e-04  9.3138889230750328e-04  9.3138889230920548e-04  9.3138889231121993e-04  9.3138889231357015e-04  9.3138889231626494e-04  9.3138889231932488e-04  9.3138889232276668e-04  9.3138889232660779e-04  9.3138889233087478e-04  9.3138889233560656e-04  9.3138889234084326e-04  9.3138889234665220e-04  9.3138889235311177e-04  9.3138889236031098e-04  9.3138889236835305e-04  9.3138889237735583e-04  9.3138889238743533e-04  9.3138889239873326e-04  9.3138889241140628e-04  9.3138889242564663e-04  9.3138889244172068e-04  9.3138889246003481e-04  9.3138889248122110e-04  9.3138889250631105e-04  9.3138889253691515e-04  9.3138889257546017e-04  9.3138889262542454e-04  9.3138889269148639e-04  9.3138889277946733e-04  9.3138889289591140e-04  9.3138889304715186e-04  9.3138889323780578e-04  9.3138889346876643e-04  9.3138889373518656e-04  9.3138889402490121e-04  9.3138889431815502e-04  9.3138889458917423e-04  9.3138889480967688e-04  9.3138889495378015e-04  9.3138889500312934e-04  9.3138889495078699e-04  9.3138889480267966e-04  9.3138889457615556e-04  9.3138889429618182e-04  9.3138889399037436e-04  9.3138889368439212e-04  9.3138889339858103e-04  9.3138889314642260e-04  9.3138889293460387e-04  9.3138889276418030e-04  9.3138889263224699e-04  9.3138889253362427e-04  9.3138889246224908e-04  9.3138889241214983e-04  9.3138889237801567e-04  9.3138889235544410e-04  9.3138889234097521e-04  9.3138889233196885e-04  9.3138889232651195e-04  9.3138889232323593e-04  9.3138889232118743e-04  9.3138889231973222e-04  9.3138889231847313e-04  9.3138889231718673e-04  9.3138889231577596e-04  9.3138889231423011e-04  9.3138889231259166e-04  9.3138889231093056e-04  9.3138889230933027e-04  9.3138889230784286e-04  9.3138889230653422e-04  9.3138889230544710e-04  9.3138889230460521e-04  9.3138889230403058e-04  9.3138889230375151e-04  2.7831227801809934e-03  9.3138889230125774e-04  4.6599716835154972e-04  4.6599716835154983e-04  4.6599716835154983e-04  4.6599716835154994e-04  4.6599716835155048e-04  4.6599716835155086e-04  4.6599716835155189e-04  4.6599716835155384e-04  4.6599716835155666e-04  4.6599716835156170e-04  4.6599716835157032e-04  4.6599716835158333e-04  4.6599716835160393e-04  4.6599716835163662e-04  4.6599716835168492e-04  4.6599716835175528e-04  4.6599716835185807e-04  4.6599716835200248e-04  4.6599716835220187e-04  4.6599716835247357e-04  4.6599716835283417e-04  4.6599716835330363e-04  4.6599716835390504e-04  4.6599716835465834e-04  4.6599716835558436e-04  4.6599716835670326e-04  4.6599716835803097e-04  4.6599716835958246e-04  4.6599716836136609e-04  4.6599716836339132e-04  4.6599716836567026e-04  4.6599716836821336e-04  4.6599716837103733e-04  4.6599716837416618e-04  4.6599716837762901e-04  4.6599716838146725e-04  4.6599716838573472e-04  4.6599716839049133e-04  4.6599716839580663e-04  4.6599716840175901e-04  4.6599716840842919e-04  4.6599716841590720e-04  4.6599716842429578e-04  4.6599716843371370e-04  4.6599716844432327e-04  4.6599716845636811e-04  4.6599716847023370e-04  4.6599716848655224e-04  4.6599716850633839e-04  4.6599716853115215e-04  4.6599716856328183e-04  4.6599716860588024e-04  4.6599716866297292e-04  4.6599716873922464e-04  4.6599716883933916e-04  4.6599716896702646e-04  4.6599716912357105e-04  4.6599716930628465e-04  4.6599716950725611e-04  4.6599716971295908e-04  4.6599716990523041e-04  4.6599717006371957e-04  4.6599717016946240e-04  4.6599717020871952e-04  4.6599717017596311e-04  4.6599717007506271e-04  4.6599716991828832e-04  4.6599716972351324e-04  4.6599716951054699e-04  4.6599716929771452e-04  4.6599716909944203e-04  4.6599716892515555e-04  4.6599716877939205e-04  4.6599716866268950e-04  4.6599716857282291e-04  4.6599716850602370e-04  4.6599716845796720e-04  4.6599716842445006e-04  4.6599716840177387e-04  4.6599716838690002e-04  4.6599716837745814e-04  4.6599716837165961e-04  4.6599716836820453e-04  4.6599716836617479e-04  4.6599716836493083e-04  4.6599716836404905e-04  4.6599716836326593e-04  4.6599716836243543e-04  4.6599716836149717e-04  4.6599716836044961e-04  4.6599716835932724e-04  4.6599716835818243e-04  4.6599716835707373e-04  4.6599716835604623e-04  4.6599716835513864e-04  4.6599716835438317e-04  4.6599716835379434e-04  4.6599716835338451e-04  4.6599716835316534e-04  9.3138889230415061e-04  9.3138889230125785e-04  4.6599716835154983e-04  4.6599716835154994e-04  4.6599716835154994e-04  4.6599716835155015e-04  4.6599716835155080e-04  4.6599716835155156e-04  4.6599716835155313e-04  4.6599716835155644e-04  4.6599716835156132e-04  4.6599716835157021e-04  4.6599716835158496e-04  4.6599716835160832e-04  4.6599716835164551e-04  4.6599716835170422e-04  4.6599716835179225e-04  4.6599716835192236e-04  4.6599716835211329e-04  4.6599716835238423e-04  4.6599716835276142e-04  4.6599716835327837e-04  4.6599716835396928e-04  4.6599716835487448e-04  4.6599716835603886e-04  4.6599716835750372e-04  4.6599716835931076e-04  4.6599716836149868e-04  4.6599716836409855e-04  4.6599716836713697e-04  4.6599716837063070e-04  4.6599716837459557e-04  4.6599716837905002e-04  4.6599716838401323e-04  4.6599716838951544e-04  4.6599716839560226e-04  4.6599716840233321e-04  4.6599716840979105e-04  4.6599716841808151e-04  4.6599716842732634e-04  4.6599716843766584e-04  4.6599716844925542e-04  4.6599716846225695e-04  4.6599716847684424e-04  4.6599716849320626e-04  4.6599716851155698e-04  4.6599716853217699e-04  4.6599716855548565e-04  4.6599716858216164e-04  4.6599716861334779e-04  4.6599716865093664e-04  4.6599716869793497e-04  4.6599716875888719e-04  4.6599716884023742e-04  4.6599716895045346e-04  4.6599716909964304e-04  4.6599716929835865e-04  4.6599716955537669e-04  4.6599716987449653e-04  4.6599717025091602e-04  4.6599717066819703e-04  4.6599717109718504e-04  4.6599717149810511e-04  4.6599717182617699e-04  4.6599717203990462e-04  4.6599717210995579e-04  4.6599717202591359e-04  4.6599717179860437e-04  4.6599717145721085e-04  4.6599717104230120e-04  4.6599717059722971e-04  4.6599717016055530e-04  4.6599716976116238e-04  4.6599716941653555e-04  4.6599716913365142e-04  4.6599716891139383e-04  4.6599716874345942e-04  4.6599716862099635e-04  4.6599716853459411e-04  4.6599716847554038e-04  4.6599716843644795e-04  4.6599716841143031e-04  4.6599716839601003e-04  4.6599716838688712e-04  4.6599716838170225e-04  4.6599716837881003e-04  4.6599716837708420e-04  4.6599716837579183e-04  4.6599716837449089e-04  4.6599716837295528e-04  4.6599716837111501e-04  4.6599716836900613e-04  4.6599716836672757e-04  4.6599716836440478e-04  4.6599716836216422e-04  4.6599716836010592e-04  4.6599716835830658e-04  4.6599716835682046e-04  4.6599716835567261e-04  4.6599716835487898e-04  4.6599716835445695e-04  9.3138889230625146e-04  9.3138889230125741e-04  4.6599716835154972e-04  4.6599716835154983e-04  4.6599716835155015e-04  4.6599716835155048e-04  4.6599716835155145e-04  4.6599716835155275e-04  4.6599716835155590e-04  4.6599716835156175e-04  4.6599716835157119e-04  4.6599716835158810e-04  4.6599716835161683e-04  4.6599716835166307e-04  4.6599716835173772e-04  4.6599716835185584e-04  4.6599716835203631e-04  4.6599716835230638e-04  4.6599716835270450e-04  4.6599716835327561e-04  4.6599716835407786e-04  4.6599716835518331e-04  4.6599716835667182e-04  4.6599716835863406e-04  4.6599716836116887e-04  4.6599716836437258e-04  4.6599716836833881e-04  4.6599716837315256e-04  4.6599716837888229e-04  4.6599716838558272e-04  4.6599716839328982e-04  4.6599716840203299e-04  4.6599716841184388e-04  4.6599716842276088e-04  4.6599716843484577e-04  4.6599716844819523e-04  4.6599716846294358e-04  4.6599716847927513e-04  4.6599716849742446e-04  4.6599716851766744e-04  4.6599716854032010e-04  4.6599716856572909e-04  4.6599716859425732e-04  4.6599716862628232e-04  4.6599716866219858e-04  4.6599716870243495e-04  4.6599716874752767e-04  4.6599716879826476e-04  4.6599716885594475e-04  4.6599716892281861e-04  4.6599716900274464e-04  4.6599716910207008e-04  4.6599716923069717e-04  4.6599716940310315e-04  4.6599716963889224e-04  4.6599716996220669e-04  4.6599717039917150e-04  4.6599717097269857e-04  4.6599717169460943e-04  4.6599717255629640e-04  4.6599717352055302e-04  4.6599717451821672e-04  4.6599717545294818e-04  4.6599717621528450e-04  4.6599717670382096e-04  4.6599717684801714e-04  4.6599717662532461e-04  4.6599717606645114e-04  4.6599717524682866e-04  4.6599717426776721e-04  4.6599717323426982e-04  4.6599717223647042e-04  4.6599717133874799e-04  4.6599717057704696e-04  4.6599716996242619e-04  4.6599716948783105e-04  4.6599716913545944e-04  4.6599716888301066e-04  4.6599716870809296e-04  4.6599716859078240e-04  4.6599716851471239e-04  4.6599716846718584e-04  4.6599716843875920e-04  4.6599716842261126e-04  4.6599716841393276e-04  4.6599716840940426e-04  4.6599716840678462e-04  4.6599716840463594e-04  4.6599716840211886e-04  4.6599716839884153e-04  4.6599716839473685e-04  4.6599716838995552e-04  4.6599716838477114e-04  4.6599716837949991e-04  4.6599716837444227e-04  4.6599716836983403e-04  4.6599716836584232e-04  4.6599716836257031e-04  4.6599716836006098e-04  4.6599716835833460e-04  4.6599716835741612e-04  9.3138889231121028e-04  9.3138889230125720e-04  4.6599716835154972e-04  4.6599716835154972e-04  4.6599716835155010e-04  4.6599716835155069e-04  4.6599716835155232e-04  4.6599716835155509e-04  4.6599716835156078e-04  4.6599716835157162e-04  4.6599716835159021e-04  4.6599716835162355e-04  4.6599716835168091e-04  4.6599716835177550e-04  4.6599716835192962e-04  4.6599716835217590e-04  4.6599716835255689e-04  4.6599716835313428e-04  4.6599716835399140e-04  4.6599716835523254e-04  4.6599716835699025e-04  4.6599716835942764e-04  4.6599716836273077e-04  4.6599716836711041e-04  4.6599716837279390e-04  4.6599716838000753e-04  4.6599716838896868e-04  4.6599716839987071e-04  4.6599716841286927e-04  4.6599716842808138e-04  4.6599716844558279e-04  4.6599716846542857e-04  4.6599716848767401e-04  4.6599716851239469e-04  4.6599716853972135e-04  4.6599716856986537e-04  4.6599716860313439e-04  4.6599716863995010e-04  4.6599716868085027e-04  4.6599716872647426e-04  4.6599716877755200e-04  4.6599716883488141e-04  4.6599716889929543e-04  4.6599716897164403e-04  4.6599716905278344e-04  4.6599716914360115e-04  4.6599716924514362e-04  4.6599716935890305e-04  4.6599716948737038e-04  4.6599716963500483e-04  4.6599716980974136e-04  4.6599717002512192e-04  4.6599717030299220e-04  4.6599717067631651e-04  4.6599717119113094e-04  4.6599717190594196e-04  4.6599717288633866e-04  4.6599717419274471e-04  4.6599717586074058e-04  4.6599717787664766e-04  4.6599718015517870e-04  4.6599718252908137e-04  4.6599718476006934e-04  4.6599718657462262e-04  4.6599718771918102e-04  4.6599718802000679e-04  4.6599718742770129e-04  4.6599718602926144e-04  4.6599718402282996e-04  4.6599718166592824e-04  4.6599717921727991e-04  4.6599717689087755e-04  4.6599717483184052e-04  4.6599717311370382e-04  4.6599717175054315e-04  4.6599717071566665e-04  4.6599716996026928e-04  4.6599716942825127e-04  4.6599716906597092e-04  4.6599716882737797e-04  4.6599716867573495e-04  4.6599716858324155e-04  4.6599716852964651e-04  4.6599716850057157e-04  4.6599716848600087e-04  4.6599716847907369e-04  4.6599716847520178e-04  4.6599716847147983e-04  4.6599716846627056e-04  4.6599716845889495e-04  4.6599716844937273e-04  4.6599716843818690e-04  4.6599716842606748e-04  4.6599716841380743e-04  4.6599716840212618e-04  4.6599716839157499e-04  4.6599716838252001e-04  4.6599716837515876e-04  4.6599716836955577e-04  4.6599716836571986e-04  4.6599716836367468e-04  9.3138889232172487e-04  9.3138889230125741e-04  4.6599716835154972e-04  4.6599716835154983e-04  4.6599716835155026e-04  4.6599716835155140e-04  4.6599716835155395e-04  4.6599716835155915e-04  4.6599716835156956e-04  4.6599716835158994e-04  4.6599716835162632e-04  4.6599716835169218e-04  4.6599716835180722e-04  4.6599716835200107e-04  4.6599716835232118e-04  4.6599716835283786e-04  4.6599716835364798e-04  4.6599716835488895e-04  4.6599716835674722e-04  4.6599716835946201e-04  4.6599716836333782e-04  4.6599716836874777e-04  4.6599716837612652e-04  4.6599716838596566e-04  4.6599716839879486e-04  4.6599716841514712e-04  4.6599716843553034e-04  4.6599716846039088e-04  4.6599716849008300e-04  4.6599716852485944e-04  4.6599716856487636e-04  4.6599716861023049e-04  4.6599716866101300e-04  4.6599716871736891e-04  4.6599716877957290e-04  4.6599716884809285e-04  4.6599716892363214e-04  4.6599716900716406e-04  4.6599716909993230e-04  4.6599716920342547e-04  4.6599716931934175e-04  4.6599716944953178e-04  4.6599716959592411e-04  4.6599716976045689e-04  4.6599716994502334e-04  4.6599717015148584e-04  4.6599717038188384e-04  4.6599717063898797e-04  4.6599717092745546e-04  4.6599717125593901e-04  4.6599717164051832e-04  4.6599717210978292e-04  4.6599717271157877e-04  4.6599717352060902e-04  4.6599717464467156e-04  4.6599717622536368e-04  4.6599717842725946e-04  4.6599718140935022e-04  4.6599718527593479e-04  4.6599719001261903e-04  4.6599719542497016e-04  4.6599720110699949e-04  4.6599720646575292e-04  4.6599721081294360e-04  4.6599721350969306e-04  4.6599721412496993e-04  4.6599721255250934e-04  4.6599720903805380e-04  4.6599720410461147e-04  4.6599719840937704e-04  4.6599719259075785e-04  4.6599718715544523e-04  4.6599718242695679e-04  4.6599717854955351e-04  4.6599717552669941e-04  4.6599717327164953e-04  4.6599717165402737e-04  4.6599717053439081e-04  4.6599716978527926e-04  4.6599716930097114e-04  4.6599716899950331e-04  4.6599716882034215e-04  4.6599716872026612e-04  4.6599716866906001e-04  4.6599716864587949e-04  4.6599716863652413e-04  4.6599716863155230e-04  4.6599716862506346e-04  4.6599716861386517e-04  4.6599716859684423e-04  4.6599716857441219e-04  4.6599716854797533e-04  4.6599716851943582e-04  4.6599716849076117e-04  4.6599716846366804e-04  4.6599716843942821e-04  4.6599716841883064e-04  4.6599716840224029e-04  4.6599716838971667e-04  4.6599716838118991e-04  4.6599716837663534e-04  9.3138889234345250e-04  9.3138889230125589e-04  4.6599716835154896e-04  4.6599716835154918e-04  4.6599716835154983e-04  4.6599716835155156e-04  4.6599716835155590e-04  4.6599716835156501e-04  4.6599716835158409e-04  4.6599716835162176e-04  4.6599716835169229e-04  4.6599716835182175e-04  4.6599716835205170e-04  4.6599716835244722e-04  4.6599716835311016e-04  4.6599716835419317e-04  4.6599716835591374e-04  4.6599716835857893e-04  4.6599716836260836e-04  4.6599716836854833e-04  4.6599716837709694e-04  4.6599716838911402e-04  4.6599716840561173e-04  4.6599716842773915e-04  4.6599716845673685e-04  4.6599716849386036e-04  4.6599716854030075e-04  4.6599716859709343e-04  4.6599716866504461e-04  4.6599716874470322e-04  4.6599716883637604e-04  4.6599716894021539e-04  4.6599716905634965e-04  4.6599716918504066e-04  4.6599716932686053e-04  4.6599716948284595e-04  4.6599716965460688e-04  4.6599716984439268e-04  4.6599717005509311e-04  4.6599717029017828e-04  4.6599717055360624e-04  4.6599717084968629e-04  4.6599717118290054e-04  4.6599717155770826e-04  4.6599717197835474e-04  4.6599717244879657e-04  4.6599717297299043e-04  4.6599717355591519e-04  4.6599717420591521e-04  4.6599717493921004e-04  4.6599717578758556e-04  4.6599717681031580e-04  4.6599717811081115e-04  4.6599717985671264e-04  4.6599718229868071e-04  4.6599718577778335e-04  4.6599719070563922e-04  4.6599719749907954e-04  4.6599720645817321e-04  4.6599721759837910e-04  4.6599723048174773e-04  4.6599724412202067e-04  4.6599725703842234e-04  4.6599726749078278e-04  4.6599727386057159e-04  4.6599727507297547e-04  4.6599727090700571e-04  4.6599726205559175e-04  4.6599724990388123e-04  4.6599723613169873e-04  4.6599722231133482e-04  4.6599720963350934e-04  4.6599719880529943e-04  4.6599719008895207e-04  4.6599718341814136e-04  4.6599717853221452e-04  4.6599717509043364e-04  4.6599717275078016e-04  4.6599717121371649e-04  4.6599717023904867e-04  4.6599716964579460e-04  4.6599716930348617e-04  4.6599716912076075e-04  4.6599716903461986e-04  4.6599716900191381e-04  4.6599716899330969e-04  4.6599716898936173e-04  4.6599716897807286e-04  4.6599716895327206e-04  4.6599716891334523e-04  4.6599716886003886e-04  4.6599716879725022e-04  4.6599716872985480e-04  4.6599716866269319e-04  4.6599716859983722e-04  4.6599716854418220e-04  4.6599716849739296e-04  4.6599716846009072e-04  4.6599716843218715e-04  4.6599716841330886e-04  4.6599716840321531e-04  9.3138889238786543e-04  9.3138889230125373e-04  4.6599716835154804e-04  4.6599716835154809e-04  4.6599716835154869e-04  4.6599716835155113e-04  4.6599716835155796e-04  4.6599716835157330e-04  4.6599716835160718e-04  4.6599716835167641e-04  4.6599716835181058e-04  4.6599716835206255e-04  4.6599716835251932e-04  4.6599716835332022e-04  4.6599716835468523e-04  4.6599716835694666e-04  4.6599716836058822e-04  4.6599716836629671e-04  4.6599716837501554e-04  4.6599716838799084e-04  4.6599716840682235e-04  4.6599716843349144e-04  4.6599716847035486e-04  4.6599716852010006e-04  4.6599716858564003e-04  4.6599716866993680e-04  4.6599716877578941e-04  4.6599716890560880e-04  4.6599716906123181e-04  4.6599716924384160e-04  4.6599716945401495e-04  4.6599716969192837e-04  4.6599716995768443e-04  4.6599717025170889e-04  4.6599717057517736e-04  4.6599717093038780e-04  4.6599717132102519e-04  4.6599717175230037e-04  4.6599717223093882e-04  4.6599717276503601e-04  4.6599717336382677e-04  4.6599717403736368e-04  4.6599717479609817e-04  4.6599717565036578e-04  4.6599717660981174e-04  4.6599717768297240e-04  4.6599717887751567e-04  4.6599718020198734e-04  4.6599718167040567e-04  4.6599718331168658e-04  4.6599718518654698e-04  4.6599718741498002e-04  4.6599719021666187e-04  4.6599719396306474e-04  4.6599719923174048e-04  4.6599720683906958e-04  4.6599721781026646e-04  4.6599723323404574e-04  4.6599725396192972e-04  4.6599728016801759e-04  4.6599731088320547e-04  4.6599734371159033e-04  4.6599737494337279e-04  4.6599740015941407e-04  4.6599741523701546e-04  4.6599741748146910e-04  4.6599740645824657e-04  4.6599738412095412e-04  4.6599735415076975e-04  4.6599732084560508e-04  4.6599728806446714e-04  4.6599725857558163e-04  4.6599723388079370e-04  4.6599721439081977e-04  4.6599719976409920e-04  4.6599718925597559e-04  4.6599718199306570e-04  4.6599717714779931e-04  4.6599717402470665e-04  4.6599717208450355e-04  4.6599717093231355e-04  4.6599717029026307e-04  4.6599716996736023e-04  4.6599716983342272e-04  4.6599716979960483e-04  4.6599716980539376e-04  4.6599716981065843e-04  4.6599716979096965e-04  4.6599716973454381e-04  4.6599716963969937e-04  4.6599716951223910e-04  4.6599716936263801e-04  4.6599716920325146e-04  4.6599716904590380e-04  4.6599716890018854e-04  4.6599716877261682e-04  4.6599716866660001e-04  4.6599716858301853e-04  4.6599716852111818e-04  4.6599716847954065e-04  4.6599716845731147e-04  9.3138889247791818e-04  9.3138889230124906e-04  4.6599716835154571e-04  4.6599716835154527e-04  4.6599716835154549e-04  4.6599716835154831e-04  4.6599716835155801e-04  4.6599716835158279e-04  4.6599716835164079e-04  4.6599716835176531e-04  4.6599716835201555e-04  4.6599716835249894e-04  4.6599716835339655e-04  4.6599716835500420e-04  4.6599716835779424e-04  4.6599716836249035e-04  4.6599716837016205e-04  4.6599716838234269e-04  4.6599716840115446e-04  4.6599716842943067e-04  4.6599716847083364e-04  4.6599716852993285e-04  4.65997168612