<?xml version="1.0"?>
<VTKFile type="UnstructuredGrid"  version="0.1"  >
<UnstructuredGrid>
<Piece  NumberOfPoints="5151" NumberOfCells="10000">
<Points>
<DataArray  type="Float64"  NumberOfComponents="3"  format="ascii">0 0 0  0.02 0 0  0.04 0 0  0.06 0 0  0.08 0 0  0.1 0 0  0.12 0 0  0.14 0 0  0.16 0 0  0.18 0 0  0.2 0 0  0.22 0 0  0.24 0 0  0.26 0 0  0.28 0 0  0.3 0 0  0.32 0 0  0.34 0 0  0.36 0 0  0.38 0 0  0.4 0 0  0.42 0 0  0.44 0 0  0.46 0 0  0.48 0 0  0.5 0 0  0.52 0 0  0.54 0 0  0.5600000000000001 0 0  0.58 0 0  0.6 0 0  0.62 0 0  0.64 0 0  0.66 0 0  0.68 0 0  0.7 0 0  0.72 0 0  0.74 0 0  0.76 0 0  0.78 0 0  0.8 0 0  0.82 0 0  0.84 0 0  0.86 0 0  0.88 0 0  0.9 0 0  0.92 0 0  0.9399999999999999 0 0  0.96 0 0  0.98 0 0  1 0 0  1.02 0 0  1.04 0 0  1.06 0 0  1.08 0 0  1.1 0 0  1.12 0 0  1.14 0 0  1.16 0 0  1.18 0 0  1.2 0 0  1.22 0 0  1.24 0 0  1.26 0 0  1.28 0 0  1.3 0 0  1.32 0 0  1.34 0 0  1.36 0 0  1.38 0 0  1.4 0 0  1.42 0 0  1.44 0 0  1.46 0 0  1.48 0 0  1.5 0 0  1.52 0 0  1.54 0 0  1.56 0 0  1.58 0 0  1.6 0 0  1.62 0 0  1.64 0 0  1.66 0 0  1.68 0 0  1.7 0 0  1.72 0 0  1.74 0 0  1.76 0 0  1.78 0 0  1.8 0 0  1.82 0 0  1.84 0 0  1.86 0 0  1.88 0 0  1.9 0 0  1.92 0 0  1.94 0 0  1.96 0 0  1.98 0 0  2 0 0  0 0.02 0  0.02 0.02 0  0.04 0.02 0  0.06 0.02 0  0.08 0.02 0  0.1 0.02 0  0.12 0.02 0  0.14 0.02 0  0.16 0.02 0  0.18 0.02 0  0.2 0.02 0  0.22 0.02 0  0.24 0.02 0  0.26 0.02 0  0.28 0.02 0  0.3 0.02 0  0.32 0.02 0  0.34 0.02 0  0.36 0.02 0  0.38 0.02 0  0.4 0.02 0  0.42 0.02 0  0.44 0.02 0  0.46 0.02 0  0.48 0.02 0  0.5 0.02 0  0.52 0.02 0  0.54 0.02 0  0.5600000000000001 0.02 0  0.58 0.02 0  0.6 0.02 0  0.62 0.02 0  0.64 0.02 0  0.66 0.02 0  0.68 0.02 0  0.7 0.02 0  0.72 0.02 0  0.74 0.02 0  0.76 0.02 0  0.78 0.02 0  0.8 0.02 0  0.82 0.02 0  0.84 0.02 0  0.86 0.02 0  0.88 0.02 0  0.9 0.02 0  0.92 0.02 0  0.9399999999999999 0.02 0  0.96 0.02 0  0.98 0.02 0  1 0.02 0  1.02 0.02 0  1.04 0.02 0  1.06 0.02 0  1.08 0.02 0  1.1 0.02 0  1.12 0.02 0  1.14 0.02 0  1.16 0.02 0  1.18 0.02 0  1.2 0.02 0  1.22 0.02 0  1.24 0.02 0  1.26 0.02 0  1.28 0.02 0  1.3 0.02 0  1.32 0.02 0  1.34 0.02 0  1.36 0.02 0  1.38 0.02 0  1.4 0.02 0  1.42 0.02 0  1.44 0.02 0  1.46 0.02 0  1.48 0.02 0  1.5 0.02 0  1.52 0.02 0  1.54 0.02 0  1.56 0.02 0  1.58 0.02 0  1.6 0.02 0  1.62 0.02 0  1.64 0.02 0  1.66 0.02 0  1.68 0.02 0  1.7 0.02 0  1.72 0.02 0  1.74 0.02 0  1.76 0.02 0  1.78 0.02 0  1.8 0.02 0  1.82 0.02 0  1.84 0.02 0  1.86 0.02 0  1.88 0.02 0  1.9 0.02 0  1.92 0.02 0  1.94 0.02 0  1.96 0.02 0  1.98 0.02 0  2 0.02 0  0 0.04 0  0.02 0.04 0  0.04 0.04 0  0.06 0.04 0  0.08 0.04 0  0.1 0.04 0  0.12 0.04 0  0.14 0.04 0  0.16 0.04 0  0.18 0.04 0  0.2 0.04 0  0.22 0.04 0  0.24 0.04 0  0.26 0.04 0  0.28 0.04 0  0.3 0.04 0  0.32 0.04 0  0.34 0.04 0  0.36 0.04 0  0.38 0.04 0  0.4 0.04 0  0.42 0.04 0  0.44 0.04 0  0.46 0.04 0  0.48 0.04 0  0.5 0.04 0  0.52 0.04 0  0.54 0.04 0  0.5600000000000001 0.04 0  0.58 0.04 0  0.6 0.04 0  0.62 0.04 0  0.64 0.04 0  0.66 0.04 0  0.68 0.04 0  0.7 0.04 0  0.72 0.04 0  0.74 0.04 0  0.76 0.04 0  0.78 0.04 0  0.8 0.04 0  0.82 0.04 0  0.84 0.04 0  0.86 0.04 0  0.88 0.04 0  0.9 0.04 0  0.92 0.04 0  0.9399999999999999 0.04 0  0.96 0.04 0  0.98 0.04 0  1 0.04 0  1.02 0.04 0  1.04 0.04 0  1.06 0.04 0  1.08 0.04 0  1.1 0.04 0  1.12 0.04 0  1.14 0.04 0  1.16 0.04 0  1.18 0.04 0  1.2 0.04 0  1.22 0.04 0  1.24 0.04 0  1.26 0.04 0  1.28 0.04 0  1.3 0.04 0  1.32 0.04 0  1.34 0.04 0  1.36 0.04 0  1.38 0.04 0  1.4 0.04 0  1.42 0.04 0  1.44 0.04 0  1.46 0.04 0  1.48 0.04 0  1.5 0.04 0  1.52 0.04 0  1.54 0.04 0  1.56 0.04 0  1.58 0.04 0  1.6 0.04 0  1.62 0.04 0  1.64 0.04 0  1.66 0.04 0  1.68 0.04 0  1.7 0.04 0  1.72 0.04 0  1.74 0.04 0  1.76 0.04 0  1.78 0.04 0  1.8 0.04 0  1.82 0.04 0  1.84 0.04 0  1.86 0.04 0  1.88 0.04 0  1.9 0.04 0  1.92 0.04 0  1.94 0.04 0  1.96 0.04 0  1.98 0.04 0  2 0.04 0  0 0.06 0  0.02 0.06 0  0.04 0.06 0  0.06 0.06 0  0.08 0.06 0  0.1 0.06 0  0.12 0.06 0  0.14 0.06 0  0.16 0.06 0  0.18 0.06 0  0.2 0.06 0  0.22 0.06 0  0.24 0.06 0  0.26 0.06 0  0.28 0.06 0  0.3 0.06 0  0.32 0.06 0  0.34 0.06 0  0.36 0.06 0  0.38 0.06 0  0.4 0.06 0  0.42 0.06 0  0.44 0.06 0  0.46 0.06 0  0.48 0.06 0  0.5 0.06 0  0.52 0.06 0  0.54 0.06 0  0.5600000000000001 0.06 0  0.58 0.06 0  0.6 0.06 0  0.62 0.06 0  0.64 0.06 0  0.66 0.06 0  0.68 0.06 0  0.7 0.06 0  0.72 0.06 0  0.74 0.06 0  0.76 0.06 0  0.78 0.06 0  0.8 0.06 0  0.82 0.06 0  0.84 0.06 0  0.86 0.06 0  0.88 0.06 0  0.9 0.06 0  0.92 0.06 0  0.9399999999999999 0.06 0  0.96 0.06 0  0.98 0.06 0  1 0.06 0  1.02 0.06 0  1.04 0.06 0  1.06 0.06 0  1.08 0.06 0  1.1 0.06 0  1.12 0.06 0  1.14 0.06 0  1.16 0.06 0  1.18 0.06 0  1.2 0.06 0  1.22 0.06 0  1.24 0.06 0  1.26 0.06 0  1.28 0.06 0  1.3 0.06 0  1.32 0.06 0  1.34 0.06 0  1.36 0.06 0  1.38 0.06 0  1.4 0.06 0  1.42 0.06 0  1.44 0.06 0  1.46 0.06 0  1.48 0.06 0  1.5 0.06 0  1.52 0.06 0  1.54 0.06 0  1.56 0.06 0  1.58 0.06 0  1.6 0.06 0  1.62 0.06 0  1.64 0.06 0  1.66 0.06 0  1.68 0.06 0  1.7 0.06 0  1.72 0.06 0  1.74 0.06 0  1.76 0.06 0  1.78 0.06 0  1.8 0.06 0  1.82 0.06 0  1.84 0.06 0  1.86 0.06 0  1.88 0.06 0  1.9 0.06 0  1.92 0.06 0  1.94 0.06 0  1.96 0.06 0  1.98 0.06 0  2 0.06 0  0 0.08 0  0.02 0.08 0  0.04 0.08 0  0.06 0.08 0  0.08 0.08 0  0.1 0.08 0  0.12 0.08 0  0.14 0.08 0  0.16 0.08 0  0.18 0.08 0  0.2 0.08 0  0.22 0.08 0  0.24 0.08 0  0.26 0.08 0  0.28 0.08 0  0.3 0.08 0  0.32 0.08 0  0.34 0.08 0  0.36 0.08 0  0.38 0.08 0  0.4 0.08 0  0.42 0.08 0  0.44 0.08 0  0.46 0.08 0  0.48 0.08 0  0.5 0.08 0  0.52 0.08 0  0.54 0.08 0  0.5600000000000001 0.08 0  0.58 0.08 0  0.6 0.08 0  0.62 0.08 0  0.64 0.08 0  0.66 0.08 0  0.68 0.08 0  0.7 0.08 0  0.72 0.08 0  0.74 0.08 0  0.76 0.08 0  0.78 0.08 0  0.8 0.08 0  0.82 0.08 0  0.84 0.08 0  0.86 0.08 0  0.88 0.08 0  0.9 0.08 0  0.92 0.08 0  0.9399999999999999 0.08 0  0.96 0.08 0  0.98 0.08 0  1 0.08 0  1.02 0.08 0  1.04 0.08 0  1.06 0.08 0  1.08 0.08 0  1.1 0.08 0  1.12 0.08 0  1.14 0.08 0  1.16 0.08 0  1.18 0.08 0  1.2 0.08 0  1.22 0.08 0  1.24 0.08 0  1.26 0.08 0  1.28 0.08 0  1.3 0.08 0  1.32 0.08 0  1.34 0.08 0  1.36 0.08 0  1.38 0.08 0  1.4 0.08 0  1.42 0.08 0  1.44 0.08 0  1.46 0.08 0  1.48 0.08 0  1.5 0.08 0  1.52 0.08 0  1.54 0.08 0  1.56 0.08 0  1.58 0.08 0  1.6 0.08 0  1.62 0.08 0  1.64 0.08 0  1.66 0.08 0  1.68 0.08 0  1.7 0.08 0  1.72 0.08 0  1.74 0.08 0  1.76 0.08 0  1.78 0.08 0  1.8 0.08 0  1.82 0.08 0  1.84 0.08 0  1.86 0.08 0  1.88 0.08 0  1.9 0.08 0  1.92 0.08 0  1.94 0.08 0  1.96 0.08 0  1.98 0.08 0  2 0.08 0  0 0.1 0  0.02 0.1 0  0.04 0.1 0  0.06 0.1 0  0.08 0.1 0  0.1 0.1 0  0.12 0.1 0  0.14 0.1 0  0.16 0.1 0  0.18 0.1 0  0.2 0.1 0  0.22 0.1 0  0.24 0.1 0  0.26 0.1 0  0.28 0.1 0  0.3 0.1 0  0.32 0.1 0  0.34 0.1 0  0.36 0.1 0  0.38 0.1 0  0.4 0.1 0  0.42 0.1 0  0.44 0.1 0  0.46 0.1 0  0.48 0.1 0  0.5 0.1 0  0.52 0.1 0  0.54 0.1 0  0.5600000000000001 0.1 0  0.58 0.1 0  0.6 0.1 0  0.62 0.1 0  0.64 0.1 0  0.66 0.1 0  0.68 0.1 0  0.7 0.1 0  0.72 0.1 0  0.74 0.1 0  0.76 0.1 0  0.78 0.1 0  0.8 0.1 0  0.82 0.1 0  0.84 0.1 0  0.86 0.1 0  0.88 0.1 0  0.9 0.1 0  0.92 0.1 0  0.9399999999999999 0.1 0  0.96 0.1 0  0.98 0.1 0  1 0.1 0  1.02 0.1 0  1.04 0.1 0  1.06 0.1 0  1.08 0.1 0  1.1 0.1 0  1.12 0.1 0  1.14 0.1 0  1.16 0.1 0  1.18 0.1 0  1.2 0.1 0  1.22 0.1 0  1.24 0.1 0  1.26 0.1 0  1.28 0.1 0  1.3 0.1 0  1.32 0.1 0  1.34 0.1 0  1.36 0.1 0  1.38 0.1 0  1.4 0.1 0  1.42 0.1 0  1.44 0.1 0  1.46 0.1 0  1.48 0.1 0  1.5 0.1 0  1.52 0.1 0  1.54 0.1 0  1.56 0.1 0  1.58 0.1 0  1.6 0.1 0  1.62 0.1 0  1.64 0.1 0  1.66 0.1 0  1.68 0.1 0  1.7 0.1 0  1.72 0.1 0  1.74 0.1 0  1.76 0.1 0  1.78 0.1 0  1.8 0.1 0  1.82 0.1 0  1.84 0.1 0  1.86 0.1 0  1.88 0.1 0  1.9 0.1 0  1.92 0.1 0  1.94 0.1 0  1.96 0.1 0  1.98 0.1 0  2 0.1 0  0 0.12 0  0.02 0.12 0  0.04 0.12 0  0.06 0.12 0  0.08 0.12 0  0.1 0.12 0  0.12 0.12 0  0.14 0.12 0  0.16 0.12 0  0.18 0.12 0  0.2 0.12 0  0.22 0.12 0  0.24 0.12 0  0.26 0.12 0  0.28 0.12 0  0.3 0.12 0  0.32 0.12 0  0.34 0.12 0  0.36 0.12 0  0.38 0.12 0  0.4 0.12 0  0.42 0.12 0  0.44 0.12 0  0.46 0.12 0  0.48 0.12 0  0.5 0.12 0  0.52 0.12 0  0.54 0.12 0  0.5600000000000001 0.12 0  0.58 0.12 0  0.6 0.12 0  0.62 0.12 0  0.64 0.12 0  0.66 0.12 0  0.68 0.12 0  0.7 0.12 0  0.72 0.12 0  0.74 0.12 0  0.76 0.12 0  0.78 0.12 0  0.8 0.12 0  0.82 0.12 0  0.84 0.12 0  0.86 0.12 0  0.88 0.12 0  0.9 0.12 0  0.92 0.12 0  0.9399999999999999 0.12 0  0.96 0.12 0  0.98 0.12 0  1 0.12 0  1.02 0.12 0  1.04 0.12 0  1.06 0.12 0  1.08 0.12 0  1.1 0.12 0  1.12 0.12 0  1.14 0.12 0  1.16 0.12 0  1.18 0.12 0  1.2 0.12 0  1.22 0.12 0  1.24 0.12 0  1.26 0.12 0  1.28 0.12 0  1.3 0.12 0  1.32 0.12 0  1.34 0.12 0  1.36 0.12 0  1.38 0.12 0  1.4 0.12 0  1.42 0.12 0  1.44 0.12 0  1.46 0.12 0  1.48 0.12 0  1.5 0.12 0  1.52 0.12 0  1.54 0.12 0  1.56 0.12 0  1.58 0.12 0  1.6 0.12 0  1.62 0.12 0  1.64 0.12 0  1.66 0.12 0  1.68 0.12 0  1.7 0.12 0  1.72 0.12 0  1.74 0.12 0  1.76 0.12 0  1.78 0.12 0  1.8 0.12 0  1.82 0.12 0  1.84 0.12 0  1.86 0.12 0  1.88 0.12 0  1.9 0.12 0  1.92 0.12 0  1.94 0.12 0  1.96 0.12 0  1.98 0.12 0  2 0.12 0  0 0.14 0  0.02 0.14 0  0.04 0.14 0  0.06 0.14 0  0.08 0.14 0  0.1 0.14 0  0.12 0.14 0  0.14 0.14 0  0.16 0.14 0  0.18 0.14 0  0.2 0.14 0  0.22 0.14 0  0.24 0.14 0  0.26 0.14 0  0.28 0.14 0  0.3 0.14 0  0.32 0.14 0  0.34 0.14 0  0.36 0.14 0  0.38 0.14 0  0.4 0.14 0  0.42 0.14 0  0.44 0.14 0  0.46 0.14 0  0.48 0.14 0  0.5 0.14 0  0.52 0.14 0  0.54 0.14 0  0.5600000000000001 0.14 0  0.58 0.14 0  0.6 0.14 0  0.62 0.14 0  0.64 0.14 0  0.66 0.14 0  0.68 0.14 0  0.7 0.14 0  0.72 0.14 0  0.74 0.14 0  0.76 0.14 0  0.78 0.14 0  0.8 0.14 0  0.82 0.14 0  0.84 0.14 0  0.86 0.14 0  0.88 0.14 0  0.9 0.14 0  0.92 0.14 0  0.9399999999999999 0.14 0  0.96 0.14 0  0.98 0.14 0  1 0.14 0  1.02 0.14 0  1.04 0.14 0  1.06 0.14 0  1.08 0.14 0  1.1 0.14 0  1.12 0.14 0  1.14 0.14 0  1.16 0.14 0  1.18 0.14 0  1.2 0.14 0  1.22 0.14 0  1.24 0.14 0  1.26 0.14 0  1.28 0.14 0  1.3 0.14 0  1.32 0.14 0  1.34 0.14 0  1.36 0.14 0  1.38 0.14 0  1.4 0.14 0  1.42 0.14 0  1.44 0.14 0  1.46 0.14 0  1.48 0.14 0  1
[...]
<PointData  Scalars="sols[i]"> 
<DataArray  type="Float64"  Name="sols[i]"  format="ascii">5.0052386435370209e-03  3.3424457836050670e-03  3.3424457836051329e-03  3.3424457836052448e-03  3.3424457836054222e-03  3.3424457836056867e-03  3.3424457836060610e-03  3.3424457836065866e-03  3.3424457836072992e-03  3.3424457836082463e-03  3.3424457836094966e-03  3.3424457836111173e-03  3.3424457836131916e-03  3.3424457836158266e-03  3.3424457836191460e-03  3.3424457836232721e-03  3.3424457836283760e-03  3.3424457836346570e-03  3.3424457836423254e-03  3.3424457836516651e-03  3.3424457836630180e-03  3.3424457836767770e-03  3.3424457836934568e-03  3.3424457837136884e-03  3.3424457837382213e-03  3.3424457837680143e-03  3.3424457838042341e-03  3.3424457838483138e-03  3.3424457839020313e-03  3.3424457839675344e-03  3.3424457840475420e-03  3.3424457841454355e-03  3.3424457842655044e-03  3.3424457844133562e-03  3.3424457845966206e-03  3.3424457848262035e-03  3.3424457851189107e-03  3.3424457855024416e-03  3.3424457860256095e-03  3.3424457867791348e-03  3.3424457879379422e-03  3.3424457898469052e-03  3.3424457931939817e-03  3.3424457993561940e-03  3.3424458110842608e-03  3.3424458338396409e-03  3.3424458783656418e-03  3.3424459655425291e-03  3.3424461353623149e-03  3.3424464631077750e-03  3.3424470876706569e-03  3.3424482594091053e-03  3.3424504176729816e-03  3.3424543099140514e-03  3.3424611621343907e-03  3.3424728974581746e-03  3.3424923608601285e-03  3.3425234144198691e-03  3.3425705862812471e-03  3.3426377635029196e-03  3.3427257695436349e-03  3.3428301466565569e-03  3.3429405919195385e-03  3.3430416764493797e-03  3.3431154258289943e-03  3.3431467996404771e-03  3.3431298550775975e-03  3.3430698446259739e-03  3.3429804048750443e-03  3.3428789236797860e-03  3.3427810891559937e-03  3.3426969459826828e-03  3.3426303359132704e-03  3.3425808196347155e-03  3.3425461384122752e-03  3.3425240188941665e-03  3.3425130989905741e-03  3.3425132081106217e-03  3.3425252253459188e-03  3.3425505383727397e-03  3.3425899559954954e-03  3.3426419761352463e-03  3.3427008179208301e-03  3.3427557512833023e-03  3.3427939819856167e-03  3.3428068040027535e-03  3.3427938898758025e-03  3.3427616812596694e-03  3.3427185505866103e-03  3.3426712646853303e-03  3.3426243477378717e-03  3.3425809712448414e-03  3.3425434773837969e-03  3.3425132035967446e-03  3.3424903264280240e-03  3.3424740753440090e-03  3.3424631762039312e-03  3.3424562784963728e-03  3.3424522397337616e-03  3.3424502705297478e-03  9.9598932704749524e-03  3.3424457836050974e-03  1.6740296672351882e-03  1.6740296672352261e-03  1.6740296672352920e-03  1.6740296672353959e-03  1.6740296672355518e-03  1.6740296672357749e-03  1.6740296672360898e-03  1.6740296672365248e-03  1.6740296672371111e-03  1.6740296672378941e-03  1.6740296672389237e-03  1.6740296672402568e-03  1.6740296672419651e-03  1.6740296672441322e-03  1.6740296672468466e-03  1.6740296672502174e-03  1.6740296672543777e-03  1.6740296672594728e-03  1.6740296672656835e-03  1.6740296672732376e-03  1.6740296672823989e-03  1.6740296672935002e-03  1.6740296673069593e-03  1.6740296673232776e-03  1.6740296673430812e-03  1.6740296673671458e-03  1.6740296673964188e-03  1.6740296674320719e-03  1.6740296674755337e-03  1.6740296675285796e-03  1.6740296675934279e-03  1.6740296676728563e-03  1.6740296677704425e-03  1.6740296678909455e-03  1.6740296680409809e-03  1.6740296682303728e-03  1.6740296684747745e-03  1.6740296688009305e-03  1.6740296692574540e-03  1.6740296699368060e-03  1.6740296710201525e-03  1.6740296728686216e-03  1.6740296762075169e-03  1.6740296824948723e-03  1.6740296946505229e-03  1.6740297184783437e-03  1.6740297653952375e-03  1.6740298575658248e-03  1.6740300373413728e-03  1.6740303841396699e-03  1.6740310436603365e-03  1.6740322765132769e-03  1.6740345354218666e-03  1.6740385807118376e-03  1.6740456393603545e-03  1.6740575946772071e-03  1.6740771380531732e-03  1.6741076686457438e-03  1.6741524621067528e-03  1.6742127422309143e-03  1.6742858192941871e-03  1.6743647120268088e-03  1.6744384400086533e-03  1.6744934919718914e-03  1.6745180150365419e-03  1.6745071091917435e-03  1.6744646031893989e-03  1.6744005984481673e-03  1.6743281205730636e-03  1.6742588709318590e-03  1.6742000432170081e-03  1.6741540346199633e-03  1.6741201233225898e-03  1.6740964089068664e-03  1.6740811202167871e-03  1.6740732261890324e-03  1.6740726015198012e-03  1.6740799445081435e-03  1.6740964604608343e-03  1.6741231594737563e-03  1.6741595846791824e-03  1.6742020930262933e-03  1.6742428237632462e-03  1.6742716466481840e-03  1.6742814642984772e-03  1.6742721349540508e-03  1.6742489447109862e-03  1.6742183601686287e-03  1.6741852025576392e-03  1.6741524351492156e-03  1.6741221549849651e-03  1.6740960361971047e-03  1.6740750668587862e-03  1.6740593605286866e-03  1.6740483222475600e-03  1.6740410005554028e-03  1.6740364090944246e-03  1.6740337243019560e-03  1.6740323693540228e-03  3.3424502085644767e-03  3.3424457836052648e-03  1.6740296672352719e-03  1.6740296672353373e-03  1.6740296672354505e-03  1.6740296672356290e-03  1.6740296672358983e-03  1.6740296672362891e-03  1.6740296672368470e-03  1.6740296672376294e-03  1.6740296672387029e-03  1.6740296672401588e-03  1.6740296672421004e-03  1.6740296672446465e-03  1.6740296672479419e-03  1.6740296672521531e-03  1.6740296672574614e-03  1.6740296672640832e-03  1.6740296672722761e-03  1.6740296672823288e-03  1.6740296672945972e-03  1.6740296673095185e-03  1.6740296673276140e-03  1.6740296673495359e-03  1.6740296673760961e-03  1.6740296674082830e-03  1.6740296674473266e-03  1.6740296674947464e-03  1.6740296675524036e-03  1.6740296676225940e-03  1.6740296677081228e-03  1.6740296678124551e-03  1.6740296679398818e-03  1.6740296680957329e-03  1.6740296682867491e-03  1.6740296685216584e-03  1.6740296688121548e-03  1.6740296691747801e-03  1.6740296696345169e-03  1.6740296702319644e-03  1.6740296710380054e-03  1.6740296721839344e-03  1.6740296739236004e-03  1.6740296767615928e-03  1.6740296817164407e-03  1.6740296908575618e-03  1.6740297083909892e-03  1.6740297428294798e-03  1.6740298112688189e-03  1.6740299476693074e-03  1.6740302185585488e-03  1.6740307520559392e-03  1.6740317898989105e-03  1.6740337773461973e-03  1.6740375119839001e-03  1.6740443780728673e-03  1.6740566949564129e-03  1.6740781968449128e-03  1.6741145909054255e-03  1.6741738096358934e-03  1.6742644613355858e-03  1.6743904883804199e-03  1.6745461357594363e-03  1.6747162293175265e-03  1.6748762539189623e-03  1.6749941586809158e-03  1.6750412705483682e-03  1.6750077097436352e-03  1.6749056214324007e-03  1.6747601174297269e-03  1.6746022131238173e-03  1.6744580757662635e-03  1.6743411947496233e-03  1.6742534808044866e-03  1.6741907841049057e-03  1.6741477085955440e-03  1.6741201263538964e-03  1.6741059807586789e-03  1.6741053283658572e-03  1.6741201284763971e-03  1.6741537331146712e-03  1.6742095709468595e-03  1.6742882512466965e-03  1.6743827087076092e-03  1.6744740138957060e-03  1.6745359414703177e-03  1.6745512547599794e-03  1.6745229977881001e-03  1.6744672669395542e-03  1.6743999901718798e-03  1.6743305362441876e-03  1.6742633820627096e-03  1.6742020879741656e-03  1.6741501608554335e-03  1.6741095901113417e-03  1.6740802228359633e-03  1.6740603508184557e-03  1.6740476714109482e-03  1.6740400121232591e-03  1.6740356814650510e-03  1.6740335549738636e-03  3.3424518949970146e-03  3.3424457836056251e-03  1.6740296672354560e-03  1.6740296672355826e-03  1.6740296672358059e-03  1.6740296672361618e-03  1.6740296672367028e-03  1.6740296672374990e-03  1.6740296672386489e-03  1.6740296672402787e-03  1.6740296672425419e-03  1.6740296672456379e-03  1.6740296672498000e-03  1.6740296672552984e-03  1.6740296672624532e-03  1.6740296672716306e-03  1.6740296672832400e-03  1.6740296672977542e-03  1.6740296673157288e-03  1.6740296673378031e-03  1.6740296673647486e-03  1.6740296673975091e-03  1.6740296674372286e-03  1.6740296674853264e-03  1.6740296675435667e-03  1.6740296676141186e-03  1.6740296676996688e-03  1.6740296678035354e-03  1.6740296679297925e-03  1.6740296680834497e-03  1.6740296682706420e-03  1.6740296684989104e-03  1.6740296687775421e-03  1.6740296691180013e-03  1.6740296695345951e-03  1.6740296700454627e-03  1.6740296706741838e-03  1.6740296714526830e-03  1.6740296724266539e-03  1.6740296736661923e-03  1.6740296752874057e-03  1.6740296774969230e-03  1.6740296806845223e-03  1.6740296856167193e-03  1.6740296938410322e-03  1.6740297085273007e-03  1.6740297362077816e-03  1.6740297903441240e-03  1.6740298985539340e-03  1.6740301170335835e-03  1.6740305588042171e-03  1.6740314477386800e-03  1.6740332189184805e-03  1.6740366984854598e-03  1.6740434124878831e-03  1.6740560925545358e-03  1.6740794670426771e-03  1.6741214645304898e-03  1.6741950076692043e-03  1.6743201454980331e-03  1.6745219506662629e-03  1.6748137256363967e-03  1.6751812338099523e-03  1.6755890807512318e-03  1.6759784918405471e-03  1.6762647594713550e-03  1.6763685987118710e-03  1.6762677696837587e-03  1.6760021223017106e-03  1.6756379391976142e-03  1.6752568475487985e-03  1.6749243551265748e-03  1.6746672016956024e-03  1.6744818739217171e-03  1.6743529030952453e-03  1.6742652255893054e-03  1.6742088683139162e-03  1.6741794858077914e-03  1.6741778010026867e-03  1.6742091693677243e-03  1.6742829618526425e-03  1.6744102780750091e-03  1.6745973234156995e-03  1.6748310022358826e-03  1.6750615540777648e-03  1.6752124000298991e-03  1.6752355350065878e-03  1.6751486466969100e-03  1.6750033380853650e-03  1.6748417164059090e-03  1.6746819747205173e-03  1.6745293078958864e-03  1.6743905655889344e-03  1.6742749121977040e-03  1.6741871004063605e-03  1.6741258032851698e-03  1.6740859413516885e-03  1.6740615106939929e-03  1.6740473100399010e-03  1.6740395501799973e-03  1.6740358363828995e-03  3.3424552660873794e-03  3.3424457836063615e-03  1.6740296672358341e-03  1.6740296672360928e-03  1.6740296672365551e-03  1.6740296672373000e-03  1.6740296672384440e-03  1.6740296672401467e-03  1.6740296672426269e-03  1.6740296672461694e-03  1.6740296672511292e-03  1.6740296672579538e-03  1.6740296672671756e-03  1.6740296672794160e-03  1.6740296672954002e-03  1.6740296673159536e-03  1.6740296673420053e-03  1.6740296673746183e-03  1.6740296674150267e-03  1.6740296674646630e-03  1.6740296675252467e-03  1.6740296675988725e-03  1.6740296676880987e-03  1.6740296677960967e-03  1.6740296679268046e-03  1.6740296680850854e-03  1.6740296682769588e-03  1.6740296685098545e-03  1.6740296687929037e-03  1.6740296691373259e-03  1.6740296695568618e-03  1.6740296700683650e-03  1.6740296706925181e-03  1.6740296714547465e-03  1.6740296723865131e-03  1.6740296735271584e-03  1.6740296749267413e-03  1.6740296766508522e-03  1.6740296787892480e-03  1.6740296814723248e-03  1.6740296849040426e-03  1.6740296894294496e-03  1.6740296956756452e-03  1.6740297048489765e-03  1.6740297193639545e-03  1.6740297441743587e-03  1.6740297895820643e-03  1.6740298771291478e-03  1.6740300518497666e-03  1.6740304074406053e-03  1.6740311371475941e-03  1.6740326345002689e-03  1.6740356873323938e-03  1.6740418384591587e-03  1.6740540265959853e-03  1.6740776649054388e-03  1.6741223598723644e-03  1.6742046287750514e-03  1.6743527541542840e-03  1.6746166541050909e-03  1.6750711576823162e-03  1.6757597471029606e-03  1.6766411629128674e-03  1.6776358362840329e-03  1.6786094006602599e-03  1.6793319450183134e-03  1.6795692223236390e-03  1.6792711422086196e-03  1.6785720255577191e-03  1.6776424354906529e-03  1.6767044813333074e-03  1.6759275582355047e-03  1.6753578954950413e-03  1.6749640361712805e-03  1.6746958627875768e-03  1.6745138793722812e-03  1.6743952872415998e-03  1.6743314770788734e-03  1.6743253366836403e-03  1.6743906639451313e-03  1.6745524277935607e-03  1.6748441361170967e-03  1.6752948212279308e-03  1.6758879939989613e-03  1.6764915007869297e-03  1.6768706079294327e-03  1.6768852805110301e-03  1.6766181359163259e-03  1.6762353675563017e-03  1.6758459466646239e-03  1.6754768338047967e-03  1.6751235465246744e-03  1.6748012366933328e-03  1.6745374974875319e-03  1.6743440267801663e-03  1.6742144951547846e-03  1.6741338588060276e-03  1.6740865014670695e-03  1.6740600462225191e-03  1.6740460810472470e-03  1.6740395616242313e-03  3.3424607706849787e-03  3.3424457836078417e-03  1.6740296672366004e-03  1.6740296672371395e-03  1.6740296672381123e-03  1.6740296672396954e-03  1.6740296672421479e-03  1.6740296672458307e-03  1.6740296672512361e-03  1.6740296672590092e-03  1.6740296672699652e-03  1.6740296672851211e-03  1.6740296673056956e-03  1.6740296673331161e-03  1.6740296673690344e-03  1.6740296674153266e-03  1.6740296674741027e-03  1.6740296675477617e-03  1.6740296676390656e-03  1.6740296677512296e-03  1.6740296678881017e-03  1.6740296680543621e-03  1.6740296682557542e-03  1.6740296684993974e-03  1.6740296687941360e-03  1.6740296691509209e-03  1.6740296695833090e-03  1.6740296701080292e-03  1.6740296707456561e-03  1.6740296715214524e-03  1.6740296724663652e-03  1.6740296736182968e-03  1.6740296750236683e-03  1.6740296767393872e-03  1.6740296788354896e-03  1.6740296813987593e-03  1.6740296845380181e-03  1.6740296883925394e-03  1.6740296931463769e-03  1.6740296990546035e-03  1.6740297064942841e-03  1.6740297160674847e-03  1.6740297288152588e-03  1.6740297466698868e-03  1.6740297734197179e-03  1.6740298167772611e-03  1.6740298928160514e-03  1.6740300354686167e-03  1.6740303167558800e-03  1.6740308895199761e-03  1.6740320766124848e-03  1.6740345539040015e-03  1.6740397170091257e-03  1.6740503921660716e-03  1.6740721510982513e-03  1.6741155834997668e-03  1.6741998478825482e-03  1.6743577053991215e-03  1.6746443404833202e-03  1.6751684195557201e-03  1.6761379812965387e-03  1.6776757956796183e-03  1.6796405614980937e-03  1.6819097568231696e-03  1.6843150339420402e-03  1.6862993559876615e-03  1.6870380065426406e-03  1.6862939161440063e-03  1.6845170180465588e-03  1.6821417145195163e-03  1.6798229851873404e-03  1.6780219433719934e-03  1.6767827801590985e-03  1.6759618344178281e-03  1.6754105527699208e-03  1.6750327749399606e-03  1.6747806845606214e-03  1.6746391204162047e-03  1.6746169566996285e-03  1.6747475422680162e-03  1.6750938374586577e-03  1.6757505215090264e-03  1.6768284449035153e-03  1.6783481700765181e-03  1.6799633964553230e-03  1.6809264480422547e-03  1.6808170362782495e-03  1.6799972354822838e-03  1.6789981877840688e-03  1.6780835882825710e-03  1.6772504907134759e-03  1.6764328488635364e-03  1.6756754676577016e-03  1.6750714059689668e-03  1.6746476944411563e-03  1.6743779593956364e-03  1.6742182050514657e-03  1.6741286594846689e-03  1.6740807018760394e-03  1.6740562809242415e-03  1.6740451673375855e-03  3.3424689851004230e-03  3.3424457836107898e-03  1.6740296672381389e-03  1.6740296672392706e-03  1.6740296672413282e-03  1.6740296672447025e-03  1.6740296672499710e-03  1.6740296672579451e-03  1.6740296672697358e-03  1.6740296672868062e-03  1.6740296673110209e-03  1.6740296673447013e-03  1.6740296673906411e-03  1.6740296674521192e-03  1.6740296675329101e-03  1.6740296676372867e-03  1.6740296677700422e-03  1.6740296679365915e-03  1.6740296681431303e-03  1.6740296683968711e-03  1.6740296687064238e-03  1.6740296690822651e-03  1.6740296695372835e-03  1.6740296700874780e-03  1.6740296707527427e-03  1.6740296715577561e-03  1.6740296725330798e-03  1.6740296737164353e-03  1.6740296751542288e-03  1.6740296769034316e-03  1.6740296790338279e-03  1.6740296816308219e-03  1.6740296847988798e-03  1.6740296886658269e-03  1.6740296933884227e-03  1.6740296991597523e-03  1.6740297062195430e-03  1.6740297148696052e-03  1.6740297254986274e-03  1.6740297386252205e-03  1.6740297549780936e-03  1.6740297756536466e-03  1.6740298024382884e-03  1.6740298384854853e-03  1.6740298897621076e-03  1.6740299681704646e-03  1.6740300983264476e-03  1.6740303323097042e-03  1.6740307817455921e-03  1.6740316873511117e-03  1.6740335686975490e-03  1.6740375432167959e-03  1.6740459942711726e-03  1.6740639339339267e-03  1.6741016677165462e-03  1.6741796001848140e-03  1.6743351151627082e-03  1.6746268323732212e-03  1.6751299083109855e-03  1.6759615746175908e-03  2.5170144734134171e-03  3.3682865995860833e-03  3.3823743635722262e-03  3.3983698797239175e-03  3.4172721126296138e-03  3.4376222660718256e-03  2.5696267676841187e-03  1.7006478085615302e-03  1.6975427391704733e-03  1.6920390523418665e-03  1.6863834162587389e-03  1.6822925384984365e-03  1.6796824110072198e-03  1.6780203154055393e-03  1.6769025822818467e-03  1.6761171276096761e-03  1.6755758052050067e-03  1.6752567200014569e-03  1.6751829226098649e-03  1.6754295204233292e-03  1.6761453469656541e-03  1.6775739663033014e-03  1.6800627613567799e-03  1.6838121063724443e-03  1.6879265441919508e-03  1.6901647497812667e-03  1.6893771513170771e-03  1.6869863629708610e-03  1.6845629202954578e-03  1.6826596838173747e-03  1.6810227769377248e-03  1.6792553332082626e-03  1.6774973013921127e-03  1.6761224277365874e-03  1.6752103884175328e-03  1.6746640594793229e-03  1.6743583681222594e-03  1.6741955287008668e-03  1.6741121180440751e-03  1.6740711971578945e-03  1.6740530562739985e-03  3.3424804272219368e-03  3.3424457836166602e-03  1.6740296672412246e-03  1.6740296672436018e-03  1.6740296672479503e-03  1.6740296672551327e-03  1.6740296672664305e-03  1.6740296672836657e-03  1.6740296673093417e-03  1.6740296673467777e-03  1.6740296674002332e-03  1.6740296674750189e-03  1.6740296675775460e-03  1.6740296677153455e-03  1.6740296678970624e-03  1.6740296681324440e-03  1.6740296684323815e-03  1.6740296688090941e-03  1.6740296692764893e-03  1.6740296698507238e-03  1.6740296705510561e-03  1.6740296714009286e-03  1.6740296724292597e-03  1.6740296736720019e-03  1.6740296751739225e-03  1.6740296769906446e-03  1.6740296791910836e-03  1.6740296818603248e-03  1.6740296851030733e-03  1.6740296890478607e-03  1.6740296938521212e-03  1.6740296997084375e-03  1.6740297068521879e-03  1.6740297155710218e-03  1.6740297262168762e-03  1.6740297392215265e-03  1.6740297551174896e-03  1.6740297745677123e-03  1.6740297984105140e-03  1.6740298277329857e-03  1.6740298640003895e-03  1.6740299092999819e-03  1.6740299668254605e-03  1.6740300418770632e-03  1.6740301439808667e-03  1.6740302914595986e-03  1.6740305214069065e-03  1.6740309116199856e-03  1.6740316290576314e-03  1.6740330371571475e-03  1.6740359334937835e-03  1.6740420745526040e-03  1.6740553264293348e-03  1.6740841543539872e-03  1.6741468620651231e-03  1.6742815857131840e-03  1.6745568772066162e-03  1.6750556798603012e-03  2.5129352702425640e-03  3.3535409327067191e-03  5.0378763457631622e-03  7.3007198091588477e-01  7.9850297522179514e-01  8.3822109476762663e-01  8.6935094672374491e-01  8.9238189264123835e-01  9.2308758484597964e-01  5.4146126244675021e-03  2.6091339031752390e-03  1.7110568137544320e-03  1.6995126537272930e-03  1.6907667982203548e-03  1.6855493787449735e-03  1.6822984590334324e-03  1.6800472712913761e-03  1.6783968357881908e-03  1.6772180337549299e-03  1.6764902771028835e-03  1.6762640519911633e-03  1.6766953124230175e-03  1.6781081643591602e-03  1.6810099522541831e-03  1.6860453439912419e-03  1.6936194768992191e-03  2.5724199858985137e-03  3.4729971069113442e-03  3.4602257013829686e-03  3.4355248656906083e-03  3.4153158558971270e-03  3.4026592788873127e-03  3.3940522111159856e-03  2.5320285236753457e-03  1.6809669403428883e-03  1.6780829215594674e-03  1.6761936784632241e-03  1.6751329816805448e-03  1.6745755398769120e-03  1.6742942225994638e-03  1.6741565662976717e-03  1.6740915089090067e-03  1.6740634086273968e-03  3.3424952996761368e-03  3.3424457836282906e-03  1.6740296672473859e-03  1.6740296672523667e-03  1.6740296672615284e-03  1.6740296672767647e-03  1.6740296673009181e-03  1.6740296673380640e-03  1.6740296673938412e-03  1.6740296674757774e-03  1.6740296675935929e-03  1.6740296677594533e-03  1.6740296679880879e-03  1.6740296682968081e-03  1.6740296687054455e-03  1.6740296692362678e-03  1.6740296699140219e-03  1.6740296707662911e-03  1.6740296718242807e-03  1.6740296731241372e-03  1.6740296747089006e-03  1.6740296766310069e-03  1.67402967895