<?xml version="1.0"?>
<VTKFile type="UnstructuredGrid"  version="0.1"  >
<UnstructuredGrid>
<Piece  NumberOfPoints="5151" NumberOfCells="10000">
<Points>
<DataArray  type="Float64"  NumberOfComponents="3"  format="ascii">0 0 0  0.02 0 0  0.04 0 0  0.06 0 0  0.08 0 0  0.1 0 0  0.12 0 0  0.14 0 0  0.16 0 0  0.18 0 0  0.2 0 0  0.22 0 0  0.24 0 0  0.26 0 0  0.28 0 0  0.3 0 0  0.32 0 0  0.34 0 0  0.36 0 0  0.38 0 0  0.4 0 0  0.42 0 0  0.44 0 0  0.46 0 0  0.48 0 0  0.5 0 0  0.52 0 0  0.54 0 0  0.5600000000000001 0 0  0.58 0 0  0.6 0 0  0.62 0 0  0.64 0 0  0.66 0 0  0.68 0 0  0.7 0 0  0.72 0 0  0.74 0 0  0.76 0 0  0.78 0 0  0.8 0 0  0.82 0 0  0.84 0 0  0.86 0 0  0.88 0 0  0.9 0 0  0.92 0 0  0.9399999999999999 0 0  0.96 0 0  0.98 0 0  1 0 0  1.02 0 0  1.04 0 0  1.06 0 0  1.08 0 0  1.1 0 0  1.12 0 0  1.14 0 0  1.16 0 0  1.18 0 0  1.2 0 0  1.22 0 0  1.24 0 0  1.26 0 0  1.28 0 0  1.3 0 0  1.32 0 0  1.34 0 0  1.36 0 0  1.38 0 0  1.4 0 0  1.42 0 0  1.44 0 0  1.46 0 0  1.48 0 0  1.5 0 0  1.52 0 0  1.54 0 0  1.56 0 0  1.58 0 0  1.6 0 0  1.62 0 0  1.64 0 0  1.66 0 0  1.68 0 0  1.7 0 0  1.72 0 0  1.74 0 0  1.76 0 0  1.78 0 0  1.8 0 0  1.82 0 0  1.84 0 0  1.86 0 0  1.88 0 0  1.9 0 0  1.92 0 0  1.94 0 0  1.96 0 0  1.98 0 0  2 0 0  0 0.02 0  0.02 0.02 0  0.04 0.02 0  0.06 0.02 0  0.08 0.02 0  0.1 0.02 0  0.12 0.02 0  0.14 0.02 0  0.16 0.02 0  0.18 0.02 0  0.2 0.02 0  0.22 0.02 0  0.24 0.02 0  0.26 0.02 0  0.28 0.02 0  0.3 0.02 0  0.32 0.02 0  0.34 0.02 0  0.36 0.02 0  0.38 0.02 0  0.4 0.02 0  0.42 0.02 0  0.44 0.02 0  0.46 0.02 0  0.48 0.02 0  0.5 0.02 0  0.52 0.02 0  0.54 0.02 0  0.5600000000000001 0.02 0  0.58 0.02 0  0.6 0.02 0  0.62 0.02 0  0.64 0.02 0  0.66 0.02 0  0.68 0.02 0  0.7 0.02 0  0.72 0.02 0  0.74 0.02 0  0.76 0.02 0  0.78 0.02 0  0.8 0.02 0  0.82 0.02 0  0.84 0.02 0  0.86 0.02 0  0.88 0.02 0  0.9 0.02 0  0.92 0.02 0  0.9399999999999999 0.02 0  0.96 0.02 0  0.98 0.02 0  1 0.02 0  1.02 0.02 0  1.04 0.02 0  1.06 0.02 0  1.08 0.02 0  1.1 0.02 0  1.12 0.02 0  1.14 0.02 0  1.16 0.02 0  1.18 0.02 0  1.2 0.02 0  1.22 0.02 0  1.24 0.02 0  1.26 0.02 0  1.28 0.02 0  1.3 0.02 0  1.32 0.02 0  1.34 0.02 0  1.36 0.02 0  1.38 0.02 0  1.4 0.02 0  1.42 0.02 0  1.44 0.02 0  1.46 0.02 0  1.48 0.02 0  1.5 0.02 0  1.52 0.02 0  1.54 0.02 0  1.56 0.02 0  1.58 0.02 0  1.6 0.02 0  1.62 0.02 0  1.64 0.02 0  1.66 0.02 0  1.68 0.02 0  1.7 0.02 0  1.72 0.02 0  1.74 0.02 0  1.76 0.02 0  1.78 0.02 0  1.8 0.02 0  1.82 0.02 0  1.84 0.02 0  1.86 0.02 0  1.88 0.02 0  1.9 0.02 0  1.92 0.02 0  1.94 0.02 0  1.96 0.02 0  1.98 0.02 0  2 0.02 0  0 0.04 0  0.02 0.04 0  0.04 0.04 0  0.06 0.04 0  0.08 0.04 0  0.1 0.04 0  0.12 0.04 0  0.14 0.04 0  0.16 0.04 0  0.18 0.04 0  0.2 0.04 0  0.22 0.04 0  0.24 0.04 0  0.26 0.04 0  0.28 0.04 0  0.3 0.04 0  0.32 0.04 0  0.34 0.04 0  0.36 0.04 0  0.38 0.04 0  0.4 0.04 0  0.42 0.04 0  0.44 0.04 0  0.46 0.04 0  0.48 0.04 0  0.5 0.04 0  0.52 0.04 0  0.54 0.04 0  0.5600000000000001 0.04 0  0.58 0.04 0  0.6 0.04 0  0.62 0.04 0  0.64 0.04 0  0.66 0.04 0  0.68 0.04 0  0.7 0.04 0  0.72 0.04 0  0.74 0.04 0  0.76 0.04 0  0.78 0.04 0  0.8 0.04 0  0.82 0.04 0  0.84 0.04 0  0.86 0.04 0  0.88 0.04 0  0.9 0.04 0  0.92 0.04 0  0.9399999999999999 0.04 0  0.96 0.04 0  0.98 0.04 0  1 0.04 0  1.02 0.04 0  1.04 0.04 0  1.06 0.04 0  1.08 0.04 0  1.1 0.04 0  1.12 0.04 0  1.14 0.04 0  1.16 0.04 0  1.18 0.04 0  1.2 0.04 0  1.22 0.04 0  1.24 0.04 0  1.26 0.04 0  1.28 0.04 0  1.3 0.04 0  1.32 0.04 0  1.34 0.04 0  1.36 0.04 0  1.38 0.04 0  1.4 0.04 0  1.42 0.04 0  1.44 0.04 0  1.46 0.04 0  1.48 0.04 0  1.5 0.04 0  1.52 0.04 0  1.54 0.04 0  1.56 0.04 0  1.58 0.04 0  1.6 0.04 0  1.62 0.04 0  1.64 0.04 0  1.66 0.04 0  1.68 0.04 0  1.7 0.04 0  1.72 0.04 0  1.74 0.04 0  1.76 0.04 0  1.78 0.04 0  1.8 0.04 0  1.82 0.04 0  1.84 0.04 0  1.86 0.04 0  1.88 0.04 0  1.9 0.04 0  1.92 0.04 0  1.94 0.04 0  1.96 0.04 0  1.98 0.04 0  2 0.04 0  0 0.06 0  0.02 0.06 0  0.04 0.06 0  0.06 0.06 0  0.08 0.06 0  0.1 0.06 0  0.12 0.06 0  0.14 0.06 0  0.16 0.06 0  0.18 0.06 0  0.2 0.06 0  0.22 0.06 0  0.24 0.06 0  0.26 0.06 0  0.28 0.06 0  0.3 0.06 0  0.32 0.06 0  0.34 0.06 0  0.36 0.06 0  0.38 0.06 0  0.4 0.06 0  0.42 0.06 0  0.44 0.06 0  0.46 0.06 0  0.48 0.06 0  0.5 0.06 0  0.52 0.06 0  0.54 0.06 0  0.5600000000000001 0.06 0  0.58 0.06 0  0.6 0.06 0  0.62 0.06 0  0.64 0.06 0  0.66 0.06 0  0.68 0.06 0  0.7 0.06 0  0.72 0.06 0  0.74 0.06 0  0.76 0.06 0  0.78 0.06 0  0.8 0.06 0  0.82 0.06 0  0.84 0.06 0  0.86 0.06 0  0.88 0.06 0  0.9 0.06 0  0.92 0.06 0  0.9399999999999999 0.06 0  0.96 0.06 0  0.98 0.06 0  1 0.06 0  1.02 0.06 0  1.04 0.06 0  1.06 0.06 0  1.08 0.06 0  1.1 0.06 0  1.12 0.06 0  1.14 0.06 0  1.16 0.06 0  1.18 0.06 0  1.2 0.06 0  1.22 0.06 0  1.24 0.06 0  1.26 0.06 0  1.28 0.06 0  1.3 0.06 0  1.32 0.06 0  1.34 0.06 0  1.36 0.06 0  1.38 0.06 0  1.4 0.06 0  1.42 0.06 0  1.44 0.06 0  1.46 0.06 0  1.48 0.06 0  1.5 0.06 0  1.52 0.06 0  1.54 0.06 0  1.56 0.06 0  1.58 0.06 0  1.6 0.06 0  1.62 0.06 0  1.64 0.06 0  1.66 0.06 0  1.68 0.06 0  1.7 0.06 0  1.72 0.06 0  1.74 0.06 0  1.76 0.06 0  1.78 0.06 0  1.8 0.06 0  1.82 0.06 0  1.84 0.06 0  1.86 0.06 0  1.88 0.06 0  1.9 0.06 0  1.92 0.06 0  1.94 0.06 0  1.96 0.06 0  1.98 0.06 0  2 0.06 0  0 0.08 0  0.02 0.08 0  0.04 0.08 0  0.06 0.08 0  0.08 0.08 0  0.1 0.08 0  0.12 0.08 0  0.14 0.08 0  0.16 0.08 0  0.18 0.08 0  0.2 0.08 0  0.22 0.08 0  0.24 0.08 0  0.26 0.08 0  0.28 0.08 0  0.3 0.08 0  0.32 0.08 0  0.34 0.08 0  0.36 0.08 0  0.38 0.08 0  0.4 0.08 0  0.42 0.08 0  0.44 0.08 0  0.46 0.08 0  0.48 0.08 0  0.5 0.08 0  0.52 0.08 0  0.54 0.08 0  0.5600000000000001 0.08 0  0.58 0.08 0  0.6 0.08 0  0.62 0.08 0  0.64 0.08 0  0.66 0.08 0  0.68 0.08 0  0.7 0.08 0  0.72 0.08 0  0.74 0.08 0  0.76 0.08 0  0.78 0.08 0  0.8 0.08 0  0.82 0.08 0  0.84 0.08 0  0.86 0.08 0  0.88 0.08 0  0.9 0.08 0  0.92 0.08 0  0.9399999999999999 0.08 0  0.96 0.08 0  0.98 0.08 0  1 0.08 0  1.02 0.08 0  1.04 0.08 0  1.06 0.08 0  1.08 0.08 0  1.1 0.08 0  1.12 0.08 0  1.14 0.08 0  1.16 0.08 0  1.18 0.08 0  1.2 0.08 0  1.22 0.08 0  1.24 0.08 0  1.26 0.08 0  1.28 0.08 0  1.3 0.08 0  1.32 0.08 0  1.34 0.08 0  1.36 0.08 0  1.38 0.08 0  1.4 0.08 0  1.42 0.08 0  1.44 0.08 0  1.46 0.08 0  1.48 0.08 0  1.5 0.08 0  1.52 0.08 0  1.54 0.08 0  1.56 0.08 0  1.58 0.08 0  1.6 0.08 0  1.62 0.08 0  1.64 0.08 0  1.66 0.08 0  1.68 0.08 0  1.7 0.08 0  1.72 0.08 0  1.74 0.08 0  1.76 0.08 0  1.78 0.08 0  1.8 0.08 0  1.82 0.08 0  1.84 0.08 0  1.86 0.08 0  1.88 0.08 0  1.9 0.08 0  1.92 0.08 0  1.94 0.08 0  1.96 0.08 0  1.98 0.08 0  2 0.08 0  0 0.1 0  0.02 0.1 0  0.04 0.1 0  0.06 0.1 0  0.08 0.1 0  0.1 0.1 0  0.12 0.1 0  0.14 0.1 0  0.16 0.1 0  0.18 0.1 0  0.2 0.1 0  0.22 0.1 0  0.24 0.1 0  0.26 0.1 0  0.28 0.1 0  0.3 0.1 0  0.32 0.1 0  0.34 0.1 0  0.36 0.1 0  0.38 0.1 0  0.4 0.1 0  0.42 0.1 0  0.44 0.1 0  0.46 0.1 0  0.48 0.1 0  0.5 0.1 0  0.52 0.1 0  0.54 0.1 0  0.5600000000000001 0.1 0  0.58 0.1 0  0.6 0.1 0  0.62 0.1 0  0.64 0.1 0  0.66 0.1 0  0.68 0.1 0  0.7 0.1 0  0.72 0.1 0  0.74 0.1 0  0.76 0.1 0  0.78 0.1 0  0.8 0.1 0  0.82 0.1 0  0.84 0.1 0  0.86 0.1 0  0.88 0.1 0  0.9 0.1 0  0.92 0.1 0  0.9399999999999999 0.1 0  0.96 0.1 0  0.98 0.1 0  1 0.1 0  1.02 0.1 0  1.04 0.1 0  1.06 0.1 0  1.08 0.1 0  1.1 0.1 0  1.12 0.1 0  1.14 0.1 0  1.16 0.1 0  1.18 0.1 0  1.2 0.1 0  1.22 0.1 0  1.24 0.1 0  1.26 0.1 0  1.28 0.1 0  1.3 0.1 0  1.32 0.1 0  1.34 0.1 0  1.36 0.1 0  1.38 0.1 0  1.4 0.1 0  1.42 0.1 0  1.44 0.1 0  1.46 0.1 0  1.48 0.1 0  1.5 0.1 0  1.52 0.1 0  1.54 0.1 0  1.56 0.1 0  1.58 0.1 0  1.6 0.1 0  1.62 0.1 0  1.64 0.1 0  1.66 0.1 0  1.68 0.1 0  1.7 0.1 0  1.72 0.1 0  1.74 0.1 0  1.76 0.1 0  1.78 0.1 0  1.8 0.1 0  1.82 0.1 0  1.84 0.1 0  1.86 0.1 0  1.88 0.1 0  1.9 0.1 0  1.92 0.1 0  1.94 0.1 0  1.96 0.1 0  1.98 0.1 0  2 0.1 0  0 0.12 0  0.02 0.12 0  0.04 0.12 0  0.06 0.12 0  0.08 0.12 0  0.1 0.12 0  0.12 0.12 0  0.14 0.12 0  0.16 0.12 0  0.18 0.12 0  0.2 0.12 0  0.22 0.12 0  0.24 0.12 0  0.26 0.12 0  0.28 0.12 0  0.3 0.12 0  0.32 0.12 0  0.34 0.12 0  0.36 0.12 0  0.38 0.12 0  0.4 0.12 0  0.42 0.12 0  0.44 0.12 0  0.46 0.12 0  0.48 0.12 0  0.5 0.12 0  0.52 0.12 0  0.54 0.12 0  0.5600000000000001 0.12 0  0.58 0.12 0  0.6 0.12 0  0.62 0.12 0  0.64 0.12 0  0.66 0.12 0  0.68 0.12 0  0.7 0.12 0  0.72 0.12 0  0.74 0.12 0  0.76 0.12 0  0.78 0.12 0  0.8 0.12 0  0.82 0.12 0  0.84 0.12 0  0.86 0.12 0  0.88 0.12 0  0.9 0.12 0  0.92 0.12 0  0.9399999999999999 0.12 0  0.96 0.12 0  0.98 0.12 0  1 0.12 0  1.02 0.12 0  1.04 0.12 0  1.06 0.12 0  1.08 0.12 0  1.1 0.12 0  1.12 0.12 0  1.14 0.12 0  1.16 0.12 0  1.18 0.12 0  1.2 0.12 0  1.22 0.12 0  1.24 0.12 0  1.26 0.12 0  1.28 0.12 0  1.3 0.12 0  1.32 0.12 0  1.34 0.12 0  1.36 0.12 0  1.38 0.12 0  1.4 0.12 0  1.42 0.12 0  1.44 0.12 0  1.46 0.12 0  1.48 0.12 0  1.5 0.12 0  1.52 0.12 0  1.54 0.12 0  1.56 0.12 0  1.58 0.12 0  1.6 0.12 0  1.62 0.12 0  1.64 0.12 0  1.66 0.12 0  1.68 0.12 0  1.7 0.12 0  1.72 0.12 0  1.74 0.12 0  1.76 0.12 0  1.78 0.12 0  1.8 0.12 0  1.82 0.12 0  1.84 0.12 0  1.86 0.12 0  1.88 0.12 0  1.9 0.12 0  1.92 0.12 0  1.94 0.12 0  1.96 0.12 0  1.98 0.12 0  2 0.12 0  0 0.14 0  0.02 0.14 0  0.04 0.14 0  0.06 0.14 0  0.08 0.14 0  0.1 0.14 0  0.12 0.14 0  0.14 0.14 0  0.16 0.14 0  0.18 0.14 0  0.2 0.14 0  0.22 0.14 0  0.24 0.14 0  0.26 0.14 0  0.28 0.14 0  0.3 0.14 0  0.32 0.14 0  0.34 0.14 0  0.36 0.14 0  0.38 0.14 0  0.4 0.14 0  0.42 0.14 0  0.44 0.14 0  0.46 0.14 0  0.48 0.14 0  0.5 0.14 0  0.52 0.14 0  0.54 0.14 0  0.5600000000000001 0.14 0  0.58 0.14 0  0.6 0.14 0  0.62 0.14 0  0.64 0.14 0  0.66 0.14 0  0.68 0.14 0  0.7 0.14 0  0.72 0.14 0  0.74 0.14 0  0.76 0.14 0  0.78 0.14 0  0.8 0.14 0  0.82 0.14 0  0.84 0.14 0  0.86 0.14 0  0.88 0.14 0  0.9 0.14 0  0.92 0.14 0  0.9399999999999999 0.14 0  0.96 0.14 0  0.98 0.14 0  1 0.14 0  1.02 0.14 0  1.04 0.14 0  1.06 0.14 0  1.08 0.14 0  1.1 0.14 0  1.12 0.14 0  1.14 0.14 0  1.16 0.14 0  1.18 0.14 0  1.2 0.14 0  1.22 0.14 0  1.24 0.14 0  1.26 0.14 0  1.28 0.14 0  1.3 0.14 0  1.32 0.14 0  1.34 0.14 0  1.36 0.14 0  1.38 0.14 0  1.4 0.14 0  1.42 0.14 0  1.44 0.14 0  1.46 0.14 0  1.48 0.14 0  1
[...]
<PointData  Scalars="sols[i]"> 
<DataArray  type="Float64"  Name="sols[i]"  format="ascii">3.7450296689350957e-03  2.4998831920364914e-03  2.4998831920364922e-03  2.4998831920364935e-03  2.4998831920364961e-03  2.4998831920365026e-03  2.4998831920365078e-03  2.4998831920365204e-03  2.4998831920365365e-03  2.4998831920365577e-03  2.4998831920365924e-03  2.4998831920366414e-03  2.4998831920367069e-03  2.4998831920368014e-03  2.4998831920369385e-03  2.4998831920371215e-03  2.4998831920373761e-03  2.4998831920377326e-03  2.4998831920382113e-03  2.4998831920388601e-03  2.4998831920397353e-03  2.4998831920408832e-03  2.4998831920423786e-03  2.4998831920443015e-03  2.4998831920467154e-03  2.4998831920497008e-03  2.4998831920533295e-03  2.4998831920576593e-03  2.4998831920627499e-03  2.4998831920686197e-03  2.4998831920753188e-03  2.4998831920828878e-03  2.4998831920913663e-03  2.4998831921008158e-03  2.4998831921113295e-03  2.4998831921229990e-03  2.4998831921359843e-03  2.4998831921504679e-03  2.4998831921666572e-03  2.4998831921847894e-03  2.4998831922051351e-03  2.4998831922279532e-03  2.4998831922535603e-03  2.4998831922822973e-03  2.4998831923145684e-03  2.4998831923509234e-03  2.4998831923921990e-03  2.4998831924396988e-03  2.4998831924955994e-03  2.4998831925633698e-03  2.4998831926483474e-03  2.4998831927583592e-03  2.4998831929041775e-03  2.4998831930995468e-03  2.4998831933603898e-03  2.4998831937027995e-03  2.4998831941395955e-03  2.4998831946754967e-03  2.4998831953020194e-03  2.4998831959930959e-03  2.4998831967035988e-03  2.4998831973723130e-03  2.4998831979298865e-03  2.4998831983107264e-03  2.4998831984660414e-03  2.4998831983743066e-03  2.4998831980458415e-03  2.4998831975200793e-03  2.4998831968566218e-03  2.4998831961229829e-03  2.4998831953829499e-03  2.4998831946878614e-03  2.4998831940723624e-03  2.4998831935542577e-03  2.4998831931371951e-03  2.4998831928147234e-03  2.4998831925744755e-03  2.4998831924016615e-03  2.4998831922815579e-03  2.4998831922009809e-03  2.4998831921489474e-03  2.4998831921168008e-03  2.4998831920979158e-03  2.4998831920874892e-03  2.4998831920820868e-03  2.4998831920793182e-03  2.4998831920776091e-03  2.4998831920759867e-03  2.4998831920739293e-03  2.4998831920712422e-03  2.4998831920679519e-03  2.4998831920642248e-03  2.4998831920602900e-03  2.4998831920564073e-03  2.4998831920527440e-03  2.4998831920494962e-03  2.4998831920467874e-03  2.4998831920446866e-03  2.4998831920432520e-03  2.4998831920425516e-03  7.4606492234335214e-03  2.4998831920364914e-03  1.2515239607865550e-03  1.2515239607865554e-03  1.2515239607865565e-03  1.2515239607865584e-03  1.2515239607865617e-03  1.2515239607865658e-03  1.2515239607865727e-03  1.2515239607865840e-03  1.2515239607865983e-03  1.2515239607866204e-03  1.2515239607866532e-03  1.2515239607866979e-03  1.2515239607867618e-03  1.2515239607868549e-03  1.2515239607869830e-03  1.2515239607871593e-03  1.2515239607874065e-03  1.2515239607877428e-03  1.2515239607881967e-03  1.2515239607888084e-03  1.2515239607896159e-03  1.2515239607906669e-03  1.2515239607920193e-03  1.2515239607937226e-03  1.2515239607958310e-03  1.2515239607983968e-03  1.2515239608014627e-03  1.2515239608050679e-03  1.2515239608092345e-03  1.2515239608139879e-03  1.2515239608193599e-03  1.2515239608253766e-03  1.2515239608320793e-03  1.2515239608395295e-03  1.2515239608477974e-03  1.2515239608569847e-03  1.2515239608672224e-03  1.2515239608786534e-03  1.2515239608914431e-03  1.2515239609057764e-03  1.2515239609218387e-03  1.2515239609398345e-03  1.2515239609599922e-03  1.2515239609825644e-03  1.2515239610078840e-03  1.2515239610364477e-03  1.2515239610690393e-03  1.2515239611069720e-03  1.2515239611524019e-03  1.2515239612087225e-03  1.2515239612810331e-03  1.2515239613765307e-03  1.2515239615046424e-03  1.2515239616766169e-03  1.2515239619042629e-03  1.2515239621976081e-03  1.2515239625614945e-03  1.2515239629916960e-03  1.2515239634715029e-03  1.2515239639701756e-03  1.2515239644446661e-03  1.2515239648451116e-03  1.2515239651234708e-03  1.2515239652432827e-03  1.2515239651876950e-03  1.2515239649631526e-03  1.2515239645975579e-03  1.2515239641336757e-03  1.2515239636200733e-03  1.2515239631024453e-03  1.2515239626173240e-03  1.2515239621890466e-03  1.2515239618297999e-03  1.2515239615416877e-03  1.2515239613197433e-03  1.2515239611549606e-03  1.2515239610367851e-03  1.2515239609548437e-03  1.2515239608999441e-03  1.2515239608644959e-03  1.2515239608425547e-03  1.2515239608296201e-03  1.2515239608224136e-03  1.2515239608186166e-03  1.2515239608166108e-03  1.2515239608153280e-03  1.2515239608141087e-03  1.2515239608125984e-03  1.2515239608106637e-03  1.2515239608083257e-03  1.2515239608056983e-03  1.2515239608029407e-03  1.2515239608002239e-03  1.2515239607976793e-03  1.2515239607954190e-03  1.2515239607935322e-03  1.2515239607920605e-03  1.2515239607910349e-03  1.2515239607904852e-03  2.4998831920435118e-03  2.4998831920364935e-03  1.2515239607865560e-03  1.2515239607865576e-03  1.2515239607865591e-03  1.2515239607865626e-03  1.2515239607865686e-03  1.2515239607865766e-03  1.2515239607865897e-03  1.2515239607866107e-03  1.2515239607866391e-03  1.2515239607866829e-03  1.2515239607867475e-03  1.2515239607868388e-03  1.2515239607869706e-03  1.2515239607871602e-03  1.2515239607874247e-03  1.2515239607877927e-03  1.2515239607883062e-03  1.2515239607890076e-03  1.2515239607899589e-03  1.2515239607912400e-03  1.2515239607929348e-03  1.2515239607951462e-03  1.2515239607979913e-03  1.2515239608015803e-03  1.2515239608060270e-03  1.2515239608114394e-03  1.2515239608179051e-03  1.2515239608255010e-03  1.2515239608342770e-03  1.2515239608442807e-03  1.2515239608555664e-03  1.2515239608681889e-03  1.2515239608822299e-03  1.2515239608978119e-03  1.2515239609150882e-03  1.2515239609342701e-03  1.2515239609556235e-03  1.2515239609794497e-03  1.2515239610060912e-03  1.2515239610359234e-03  1.2515239610693305e-03  1.2515239611067173e-03  1.2515239611485113e-03  1.2515239611951712e-03  1.2515239612472706e-03  1.2515239613056447e-03  1.2515239613716401e-03  1.2515239614475744e-03  1.2515239615373901e-03  1.2515239616475266e-03  1.2515239617879850e-03  1.2515239619733235e-03  1.2515239622231924e-03  1.2515239625617589e-03  1.2515239630152505e-03  1.2515239636069972e-03  1.2515239643498700e-03  1.2515239652372530e-03  1.2515239662348242e-03  1.2515239672765202e-03  1.2515239682680537e-03  1.2515239690994552e-03  1.2515239696651592e-03  1.2515239698867166e-03  1.2515239697311071e-03  1.2515239692183070e-03  1.2515239684155141e-03  1.2515239674204988e-03  1.2515239663401883e-03  1.2515239652712976e-03  1.2515239642874902e-03  1.2515239634344236e-03  1.2515239627314892e-03  1.2515239621775523e-03  1.2515239617580920e-03  1.2515239614518030e-03  1.2515239612356413e-03  1.2515239610880607e-03  1.2515239609906690e-03  1.2515239609287348e-03  1.2515239608910066e-03  1.2515239608691573e-03  1.2515239608572100e-03  1.2515239608509798e-03  1.2515239608475877e-03  1.2515239608451550e-03  1.2515239608425477e-03  1.2515239608391925e-03  1.2515239608349245e-03  1.2515239608298576e-03  1.2515239608242707e-03  1.2515239608185090e-03  1.2515239608129178e-03  1.2515239608077656e-03  1.2515239608032582e-03  1.2515239607995370e-03  1.2515239607966643e-03  1.2515239607946782e-03  1.2515239607936188e-03  2.4998831920485950e-03  2.4998831920364987e-03  1.2515239607865586e-03  1.2515239607865612e-03  1.2515239607865654e-03  1.2515239607865721e-03  1.2515239607865840e-03  1.2515239607866011e-03  1.2515239607866287e-03  1.2515239607866716e-03  1.2515239607867334e-03  1.2515239607868273e-03  1.2515239607869667e-03  1.2515239607871669e-03  1.2515239607874557e-03  1.2515239607878703e-03  1.2515239607884538e-03  1.2515239607892692e-03  1.2515239607904047e-03  1.2515239607919638e-03  1.2515239607940850e-03  1.2515239607969440e-03  1.2515239608007424e-03  1.2515239608057145e-03  1.2515239608121252e-03  1.2515239608202374e-03  1.2515239608303129e-03  1.2515239608425941e-03  1.2515239608572816e-03  1.2515239608745391e-03  1.2515239608944806e-03  1.2515239609172015e-03  1.2515239609428037e-03  1.2515239609714030e-03  1.2515239610031764e-03  1.2515239610383882e-03  1.2515239610773954e-03  1.2515239611206764e-03  1.2515239611688299e-03  1.2515239612225473e-03  1.2515239612826100e-03  1.2515239613498643e-03  1.2515239614251830e-03  1.2515239615094589e-03  1.2515239616035963e-03  1.2515239617085267e-03  1.2515239618253419e-03  1.2515239619555767e-03  1.2515239621017412e-03  1.2515239622682890e-03  1.2515239624631017e-03  1.2515239626995716e-03  1.2515239629992392e-03  1.2515239633945116e-03  1.2515239639305270e-03  1.2515239646645811e-03  1.2515239656610653e-03  1.2515239669800256e-03  1.2515239686587468e-03  1.2515239706886677e-03  1.2515239729934680e-03  1.2515239754172427e-03  1.2515239777318886e-03  1.2515239796682671e-03  1.2515239809675902e-03  1.2515239814400291e-03  1.2515239810115205e-03  1.2515239797415314e-03  1.2515239778052715e-03  1.2515239754482322e-03  1.2515239729305786e-03  1.2515239704794384e-03  1.2515239682599668e-03  1.2515239663670648e-03  1.2515239648331288e-03  1.2515239636443651e-03  1.2515239627590158e-03  1.2515239621230683e-03  1.2515239616814971e-03  1.2515239613849062e-03  1.2515239611924653e-03  1.2515239610723439e-03  1.2515239610007677e-03  1.2515239609604905e-03  1.2515239609392932e-03  1.2515239609286947e-03  1.2515239609229292e-03  1.2515239609182732e-03  1.2515239609125412e-03  1.2515239609047139e-03  1.2515239608946276e-03  1.2515239608826951e-03  1.2515239608696545e-03  1.2515239608563503e-03  1.2515239608435777e-03  1.2515239608319531e-03  1.2515239608219052e-03  1.2515239608136906e-03  1.2515239608074061e-03  1.2515239608030884e-03  1.2515239608007855e-03  2.4998831920605724e-03  2.4998831920365091e-03  1.2515239607865641e-03  1.2515239607865688e-03  1.2515239607865775e-03  1.2515239607865918e-03  1.2515239607866161e-03  1.2515239607866534e-03  1.2515239607867117e-03  1.2515239607868026e-03  1.2515239607869377e-03  1.2515239607871417e-03  1.2515239607874442e-03  1.2515239607878842e-03  1.2515239607885200e-03  1.2515239607894329e-03  1.2515239607907235e-03  1.2515239607925330e-03  1.2515239607950540e-03  1.2515239607985276e-03  1.2515239608032692e-03  1.2515239608096784e-03  1.2515239608182260e-03  1.2515239608294629e-03  1.2515239608440003e-03  1.2515239608624628e-03  1.2515239608854633e-03  1.2515239609135595e-03  1.2515239609472125e-03  1.2515239609867793e-03  1.2515239610325084e-03  1.2515239610845898e-03  1.2515239611432124e-03  1.2515239612086173e-03  1.2515239612811871e-03  1.2515239613615078e-03  1.2515239614504052e-03  1.2515239615489831e-03  1.2515239616586204e-03  1.2515239617809277e-03  1.2515239619177161e-03  1.2515239620709405e-03  1.2515239622426170e-03  1.2515239624347725e-03  1.2515239626493956e-03  1.2515239628884411e-03  1.2515239631540396e-03  1.2515239634490337e-03  1.2515239637780945e-03  1.2515239641498030e-03  1.2515239645800272e-03  1.2515239650968972e-03  1.2515239657473853e-03  1.2515239666046221e-03  1.2515239677738166e-03  1.2515239693928720e-03  1.2515239716222313e-03  1.2515239746183685e-03  1.2515239784882776e-03  1.2515239832296262e-03  1.2515239886713868e-03  1.2515239944389477e-03  1.2515239999690501e-03  1.2515240045884854e-03  1.2515240076481269e-03  1.2515240086775354e-03  1.2515240075075245e-03  1.2515240043126151e-03  1.2515239995566710e-03  1.2515239938668534e-03  1.2515239878869106e-03  1.2515239821584230e-03  1.2515239770558594e-03  1.2515239727759102e-03  1.2515239693652335e-03  1.2515239667659553e-03  1.2515239648620956e-03  1.2515239635170095e-03  1.2515239625984064e-03  1.2515239619918152e-03  1.2515239616053908e-03  1.2515239613693136e-03  1.2515239612325153e-03  1.2515239611585792e-03  1.2515239611220023e-03  1.2515239611051985e-03  1.2515239610963059e-03  1.2515239610877487e-03  1.2515239610752214e-03  1.2515239610569305e-03  1.2515239610329356e-03  1.2515239610045308e-03  1.2515239609736653e-03  1.2515239609424418e-03  1.2515239609127498e-03  1.2515239608860134e-03  1.2515239608631554e-03  1.2515239608446469e-03  1.2515239608306109e-03  1.2515239608210250e-03  1.2515239608159082e-03  2.4998831920859123e-03  2.4998831920365308e-03  1.2515239607865758e-03  1.2515239607865853e-03  1.2515239607866031e-03  1.2515239607866337e-03  1.2515239607866838e-03  1.2515239607867627e-03  1.2515239607868872e-03  1.2515239607870806e-03  1.2515239607873729e-03  1.2515239607878144e-03  1.2515239607884712e-03  1.2515239607894327e-03  1.2515239607908274e-03  1.2515239607928308e-03  1.2515239607956729e-03  1.2515239607996693e-03  1.2515239608052464e-03  1.2515239608129546e-03  1.2515239608235139e-03  1.2515239608378364e-03  1.2515239608570220e-03  1.2515239608823575e-03  1.2515239609152719e-03  1.2515239609572433e-03  1.2515239610097109e-03  1.2515239610739683e-03  1.2515239611510707e-03  1.2515239612418028e-03  1.2515239613466857e-03  1.2515239614660802e-03  1.2515239616003287e-03  1.2515239617499143e-03  1.2515239619156544e-03  1.2515239620988598e-03  1.2515239623014302e-03  1.2515239625259223e-03  1.2515239627755336e-03  1.2515239630540203e-03  1.2515239633655983e-03  1.2515239637148059e-03  1.2515239641063235e-03  1.2515239645448030e-03  1.2515239650346972e-03  1.2515239655801786e-03  1.2515239661854227e-03  1.2515239668555826e-03  1.2515239675990521e-03  1.2515239684319022e-03  1.2515239693854632e-03  1.2515239705180468e-03  1.2515239719311970e-03  1.2515239737890271e-03  1.2515239763359635e-03  1.2515239799034117e-03  1.2515239848909323e-03  1.2515239917057339e-03  1.2515240006504679e-03  1.2515240117678471e-03  1.2515240246793063e-03  1.2515240384824563e-03  1.2515240517785163e-03  1.2515240628715870e-03  1.2515240701205369e-03  1.2515240723504832e-03  1.2515240691772455e-03  1.2515240611084284e-03  1.2515240493779093e-03  1.2515240355942708e-03  1.2515240213527268e-03  1.2515240079413726e-03  1.2515239962005271e-03  1.2515239865231044e-03  1.2515239789450778e-03  1.2515239732696628e-03  1.2515239691838764e-03  1.2515239663463270e-03  1.2515239644415835e-03  1.2515239632061425e-03  1.2515239624346446e-03  1.2515239619747816e-03  1.2515239617173826e-03  1.2515239615857924e-03  1.2515239615268252e-03  1.2515239615039629e-03  1.2515239614926852e-03  1.2515239614775018e-03  1.2515239614499427e-03  1.2515239614070222e-03  1.2515239613498294e-03  1.2515239612821230e-03  1.2515239612089770e-03  1.2515239611356056e-03  1.2515239610665036e-03  1.2515239610049406e-03  1.2515239609528783e-03  1.2515239609111508e-03  1.2515239608797922e-03  1.2515239608585106e-03  1.2515239608471406e-03  2.4998831921381284e-03  2.4998831920365703e-03  1.2515239607865972e-03  1.2515239607866170e-03  1.2515239607866536e-03  1.2515239607867169e-03  1.2515239607868210e-03  1.2515239607869873e-03  1.2515239607872510e-03  1.2515239607876617e-03  1.2515239607882897e-03  1.2515239607892416e-03  1.2515239607906630e-03  1.2515239607927557e-03  1.2515239607958010e-03  1.2515239608001853e-03  1.2515239608064232e-03  1.2515239608152171e-03  1.2515239608275155e-03  1.2515239608445654e-03  1.2515239608680037e-03  1.2515239608999202e-03  1.2515239609428709e-03  1.2515239609998665e-03  1.2515239610742634e-03  1.2515239611695537e-03  1.2515239612891258e-03  1.2515239614359934e-03  1.2515239616125680e-03  1.2515239618205685e-03  1.2515239620610556e-03  1.2515239623346690e-03  1.2515239626419833e-03  1.2515239629839233e-03  1.2515239633622255e-03  1.2515239637798197e-03  1.2515239642410724e-03  1.2515239647519138e-03  1.2515239653197851e-03  1.2515239659534453e-03  1.2515239666627174e-03  1.2515239674581616e-03  1.2515239683506655e-03  1.2515239693509849e-03  1.2515239704692254e-03  1.2515239717144388e-03  1.2515239730948393e-03  1.2515239746194325e-03  1.2515239763024257e-03  1.2515239781724795e-03  1.2515239802894369e-03  1.2515239827714710e-03  1.2515239858346655e-03  1.2515239898432150e-03  1.2515239953605518e-03  1.2515240031788987e-03  1.2515240142898262e-03  1.2515240297495702e-03  1.2515240504043070e-03  1.2515240764870636e-03  1.2515241071784644e-03  1.2515241403065985e-03  1.2515241723868816e-03  1.2515241991265438e-03  1.2515242163522108e-03  1.2515242211131475e-03  1.2515242125488593e-03  1.2515241921275248e-03  1.2515241631424129e-03  1.2515241297262501e-03  1.2515240958249074e-03  1.2515240644799003e-03  1.2515240375423520e-03  1.2515240157476995e-03  1.2515239989941999e-03  1.2515239866749068e-03  1.2515239779650679e-03  1.2515239720234151e-03  1.2515239681061959e-03  1.2515239656131565e-03  1.2515239640898490e-03  1.2515239632074036e-03  1.2515239627346841e-03  1.2515239625116082e-03  1.2515239624278354e-03  1.2515239624076731e-03  1.2515239624003546e-03  1.2515239623741474e-03  1.2515239623125064e-03  1.2515239622109997e-03  1.2515239620742504e-03  1.2515239619126917e-03  1.2515239617393514e-03  1.2515239615670634e-03  1.2515239614064786e-03  1.2515239612650060e-03  1.2515239611467265e-03  1.2515239610529560e-03  1.2515239609831700e-03  1.2515239609361369e-03  1.2515239609110021e-03  2.4998831922445341e-03  2.4998831920366514e-03  1.2515239607866406e-03  1.2515239607866807e-03  1.2515239607867560e-03  1.2515239607868863e-03  1.2515239607871025e-03  1.2515239607874507e-03  1.2515239607880063e-03  1.2515239607888767e-03  1.2515239607902189e-03  1.2515239607922635e-03  1.2515239607953316e-03  1.2515239607998707e-03  1.2515239608065019e-03  1.2515239608160739e-03  1.2515239608297335e-03  1.2515239608490382e-03  1.2515239608760964e-03  1.2515239609137180e-03  1.2515239609656157e-03  1.2515239610365750e-03  1.2515239611325306e-03  1.2515239612605280e-03  1.2515239614284699e-03  1.2515239616446205e-03  1.2515239619169754e-03  1.2515239622525722e-03  1.2515239626569275e-03  1.2515239631337822e-03  1.2515239636852230e-03  1.2515239643122503e-03  1.2515239650156675e-03  1.2515239657971469e-03  1.2515239666603365e-03  1.2515239676117857e-03  1.2515239686615399e-03  1.2515239698233781e-03  1.2515239711146471e-03  1.2515239725557812e-03  1.2515239741696738e-03  1.2515239759809170e-03  1.2515239780148824e-03  1.2515239802965846e-03  1.2515239828492434e-03  1.2515239856928607e-03  1.2515239888437658e-03  1.2515239923169246e-03  1.2515239961340811e-03  1.2515240003425146e-03  1.2515240050511038e-03  1.2515240104920325e-03  1.2515240171156073e-03  1.2515240257183016e-03  1.2515240375856188e-03  1.2515240545981207e-03  1.2515240792051593e-03  1.2515241141363154e-03  1.2515241617356047e-03  1.2515242229174284e-03  1.2515242959685877e-03  1.2515243756725215e-03  1.2515244533253739e-03  1.2515245180112027e-03  1.2515245590543772e-03  1.2515245689995057e-03  1.2515245459589425e-03  1.2515244941674825e-03  1.2515244224462064e-03  1.2515243414241428e-03  1.2515242608294773e-03  1.2515241877703216e-03  1.2515241262181225e-03  1.2515240773942639e-03  1.2515240405927221e-03  1.2515240140491529e-03  1.2515239956348405e-03  1.2515239833054271e-03  1.2515239753284875e-03  1.2515239703527930e-03  1.2515239673846397e-03  1.2515239657223400e-03  1.2515239648819832e-03  1.2515239645322577e-03  1.2515239644454491e-03  1.2515239644647952e-03  1.2515239644848761e-03  1.2515239644404984e-03  1.2515239642996469e-03  1.2515239640573986e-03  1.2515239637291751e-03  1.2515239633431050e-03  1.2515239629322789e-03  1.2515239625280736e-03  1.2515239621555495e-03  1.2515239618312742e-03  1.2515239615634530e-03  1.2515239613536148e-03  1.2515239611990885e-03  1.2515239610957454e-03  1.2515239610405497e-03  2.4998831924595527e-03  2.4998831920368075e-03  1.2515239607867254e-03  1.2515239607868065e-03  1.2515239607869607e-03  1.2515239607872276e-03  1.2515239607876739e-03  1.2515239607884001e-03  1.2515239607895654e-03  1.2515239607914050e-03  1.2515239607942626e-03  1.2515239607986397e-03  1.2515239608052457e-03  1.2515239608150684e-03  1.2515239608294772e-03  1.2515239608503444e-03  1.2515239608802075e-03  1.2515239609225152e-03  1.2515239609819462e-03  1.2515239610647992e-03  1.2515239611794755e-03  1.2515239613369233e-03  1.25152396155