<?xml version="1.0"?>
<VTKFile type="UnstructuredGrid"  version="0.1"  >
<UnstructuredGrid>
<Piece  NumberOfPoints="5151" NumberOfCells="10000">
<Points>
<DataArray  type="Float64"  NumberOfComponents="3"  format="ascii">0 0 0  0.02 0 0  0.04 0 0  0.06 0 0  0.08 0 0  0.1 0 0  0.12 0 0  0.14 0 0  0.16 0 0  0.18 0 0  0.2 0 0  0.22 0 0  0.24 0 0  0.26 0 0  0.28 0 0  0.3 0 0  0.32 0 0  0.34 0 0  0.36 0 0  0.38 0 0  0.4 0 0  0.42 0 0  0.44 0 0  0.46 0 0  0.48 0 0  0.5 0 0  0.52 0 0  0.54 0 0  0.5600000000000001 0 0  0.58 0 0  0.6 0 0  0.62 0 0  0.64 0 0  0.66 0 0  0.68 0 0  0.7 0 0  0.72 0 0  0.74 0 0  0.76 0 0  0.78 0 0  0.8 0 0  0.82 0 0  0.84 0 0  0.86 0 0  0.88 0 0  0.9 0 0  0.92 0 0  0.9399999999999999 0 0  0.96 0 0  0.98 0 0  1 0 0  1.02 0 0  1.04 0 0  1.06 0 0  1.08 0 0  1.1 0 0  1.12 0 0  1.14 0 0  1.16 0 0  1.18 0 0  1.2 0 0  1.22 0 0  1.24 0 0  1.26 0 0  1.28 0 0  1.3 0 0  1.32 0 0  1.34 0 0  1.36 0 0  1.38 0 0  1.4 0 0  1.42 0 0  1.44 0 0  1.46 0 0  1.48 0 0  1.5 0 0  1.52 0 0  1.54 0 0  1.56 0 0  1.58 0 0  1.6 0 0  1.62 0 0  1.64 0 0  1.66 0 0  1.68 0 0  1.7 0 0  1.72 0 0  1.74 0 0  1.76 0 0  1.78 0 0  1.8 0 0  1.82 0 0  1.84 0 0  1.86 0 0  1.88 0 0  1.9 0 0  1.92 0 0  1.94 0 0  1.96 0 0  1.98 0 0  2 0 0  0 0.02 0  0.02 0.02 0  0.04 0.02 0  0.06 0.02 0  0.08 0.02 0  0.1 0.02 0  0.12 0.02 0  0.14 0.02 0  0.16 0.02 0  0.18 0.02 0  0.2 0.02 0  0.22 0.02 0  0.24 0.02 0  0.26 0.02 0  0.28 0.02 0  0.3 0.02 0  0.32 0.02 0  0.34 0.02 0  0.36 0.02 0  0.38 0.02 0  0.4 0.02 0  0.42 0.02 0  0.44 0.02 0  0.46 0.02 0  0.48 0.02 0  0.5 0.02 0  0.52 0.02 0  0.54 0.02 0  0.5600000000000001 0.02 0  0.58 0.02 0  0.6 0.02 0  0.62 0.02 0  0.64 0.02 0  0.66 0.02 0  0.68 0.02 0  0.7 0.02 0  0.72 0.02 0  0.74 0.02 0  0.76 0.02 0  0.78 0.02 0  0.8 0.02 0  0.82 0.02 0  0.84 0.02 0  0.86 0.02 0  0.88 0.02 0  0.9 0.02 0  0.92 0.02 0  0.9399999999999999 0.02 0  0.96 0.02 0  0.98 0.02 0  1 0.02 0  1.02 0.02 0  1.04 0.02 0  1.06 0.02 0  1.08 0.02 0  1.1 0.02 0  1.12 0.02 0  1.14 0.02 0  1.16 0.02 0  1.18 0.02 0  1.2 0.02 0  1.22 0.02 0  1.24 0.02 0  1.26 0.02 0  1.28 0.02 0  1.3 0.02 0  1.32 0.02 0  1.34 0.02 0  1.36 0.02 0  1.38 0.02 0  1.4 0.02 0  1.42 0.02 0  1.44 0.02 0  1.46 0.02 0  1.48 0.02 0  1.5 0.02 0  1.52 0.02 0  1.54 0.02 0  1.56 0.02 0  1.58 0.02 0  1.6 0.02 0  1.62 0.02 0  1.64 0.02 0  1.66 0.02 0  1.68 0.02 0  1.7 0.02 0  1.72 0.02 0  1.74 0.02 0  1.76 0.02 0  1.78 0.02 0  1.8 0.02 0  1.82 0.02 0  1.84 0.02 0  1.86 0.02 0  1.88 0.02 0  1.9 0.02 0  1.92 0.02 0  1.94 0.02 0  1.96 0.02 0  1.98 0.02 0  2 0.02 0  0 0.04 0  0.02 0.04 0  0.04 0.04 0  0.06 0.04 0  0.08 0.04 0  0.1 0.04 0  0.12 0.04 0  0.14 0.04 0  0.16 0.04 0  0.18 0.04 0  0.2 0.04 0  0.22 0.04 0  0.24 0.04 0  0.26 0.04 0  0.28 0.04 0  0.3 0.04 0  0.32 0.04 0  0.34 0.04 0  0.36 0.04 0  0.38 0.04 0  0.4 0.04 0  0.42 0.04 0  0.44 0.04 0  0.46 0.04 0  0.48 0.04 0  0.5 0.04 0  0.52 0.04 0  0.54 0.04 0  0.5600000000000001 0.04 0  0.58 0.04 0  0.6 0.04 0  0.62 0.04 0  0.64 0.04 0  0.66 0.04 0  0.68 0.04 0  0.7 0.04 0  0.72 0.04 0  0.74 0.04 0  0.76 0.04 0  0.78 0.04 0  0.8 0.04 0  0.82 0.04 0  0.84 0.04 0  0.86 0.04 0  0.88 0.04 0  0.9 0.04 0  0.92 0.04 0  0.9399999999999999 0.04 0  0.96 0.04 0  0.98 0.04 0  1 0.04 0  1.02 0.04 0  1.04 0.04 0  1.06 0.04 0  1.08 0.04 0  1.1 0.04 0  1.12 0.04 0  1.14 0.04 0  1.16 0.04 0  1.18 0.04 0  1.2 0.04 0  1.22 0.04 0  1.24 0.04 0  1.26 0.04 0  1.28 0.04 0  1.3 0.04 0  1.32 0.04 0  1.34 0.04 0  1.36 0.04 0  1.38 0.04 0  1.4 0.04 0  1.42 0.04 0  1.44 0.04 0  1.46 0.04 0  1.48 0.04 0  1.5 0.04 0  1.52 0.04 0  1.54 0.04 0  1.56 0.04 0  1.58 0.04 0  1.6 0.04 0  1.62 0.04 0  1.64 0.04 0  1.66 0.04 0  1.68 0.04 0  1.7 0.04 0  1.72 0.04 0  1.74 0.04 0  1.76 0.04 0  1.78 0.04 0  1.8 0.04 0  1.82 0.04 0  1.84 0.04 0  1.86 0.04 0  1.88 0.04 0  1.9 0.04 0  1.92 0.04 0  1.94 0.04 0  1.96 0.04 0  1.98 0.04 0  2 0.04 0  0 0.06 0  0.02 0.06 0  0.04 0.06 0  0.06 0.06 0  0.08 0.06 0  0.1 0.06 0  0.12 0.06 0  0.14 0.06 0  0.16 0.06 0  0.18 0.06 0  0.2 0.06 0  0.22 0.06 0  0.24 0.06 0  0.26 0.06 0  0.28 0.06 0  0.3 0.06 0  0.32 0.06 0  0.34 0.06 0  0.36 0.06 0  0.38 0.06 0  0.4 0.06 0  0.42 0.06 0  0.44 0.06 0  0.46 0.06 0  0.48 0.06 0  0.5 0.06 0  0.52 0.06 0  0.54 0.06 0  0.5600000000000001 0.06 0  0.58 0.06 0  0.6 0.06 0  0.62 0.06 0  0.64 0.06 0  0.66 0.06 0  0.68 0.06 0  0.7 0.06 0  0.72 0.06 0  0.74 0.06 0  0.76 0.06 0  0.78 0.06 0  0.8 0.06 0  0.82 0.06 0  0.84 0.06 0  0.86 0.06 0  0.88 0.06 0  0.9 0.06 0  0.92 0.06 0  0.9399999999999999 0.06 0  0.96 0.06 0  0.98 0.06 0  1 0.06 0  1.02 0.06 0  1.04 0.06 0  1.06 0.06 0  1.08 0.06 0  1.1 0.06 0  1.12 0.06 0  1.14 0.06 0  1.16 0.06 0  1.18 0.06 0  1.2 0.06 0  1.22 0.06 0  1.24 0.06 0  1.26 0.06 0  1.28 0.06 0  1.3 0.06 0  1.32 0.06 0  1.34 0.06 0  1.36 0.06 0  1.38 0.06 0  1.4 0.06 0  1.42 0.06 0  1.44 0.06 0  1.46 0.06 0  1.48 0.06 0  1.5 0.06 0  1.52 0.06 0  1.54 0.06 0  1.56 0.06 0  1.58 0.06 0  1.6 0.06 0  1.62 0.06 0  1.64 0.06 0  1.66 0.06 0  1.68 0.06 0  1.7 0.06 0  1.72 0.06 0  1.74 0.06 0  1.76 0.06 0  1.78 0.06 0  1.8 0.06 0  1.82 0.06 0  1.84 0.06 0  1.86 0.06 0  1.88 0.06 0  1.9 0.06 0  1.92 0.06 0  1.94 0.06 0  1.96 0.06 0  1.98 0.06 0  2 0.06 0  0 0.08 0  0.02 0.08 0  0.04 0.08 0  0.06 0.08 0  0.08 0.08 0  0.1 0.08 0  0.12 0.08 0  0.14 0.08 0  0.16 0.08 0  0.18 0.08 0  0.2 0.08 0  0.22 0.08 0  0.24 0.08 0  0.26 0.08 0  0.28 0.08 0  0.3 0.08 0  0.32 0.08 0  0.34 0.08 0  0.36 0.08 0  0.38 0.08 0  0.4 0.08 0  0.42 0.08 0  0.44 0.08 0  0.46 0.08 0  0.48 0.08 0  0.5 0.08 0  0.52 0.08 0  0.54 0.08 0  0.5600000000000001 0.08 0  0.58 0.08 0  0.6 0.08 0  0.62 0.08 0  0.64 0.08 0  0.66 0.08 0  0.68 0.08 0  0.7 0.08 0  0.72 0.08 0  0.74 0.08 0  0.76 0.08 0  0.78 0.08 0  0.8 0.08 0  0.82 0.08 0  0.84 0.08 0  0.86 0.08 0  0.88 0.08 0  0.9 0.08 0  0.92 0.08 0  0.9399999999999999 0.08 0  0.96 0.08 0  0.98 0.08 0  1 0.08 0  1.02 0.08 0  1.04 0.08 0  1.06 0.08 0  1.08 0.08 0  1.1 0.08 0  1.12 0.08 0  1.14 0.08 0  1.16 0.08 0  1.18 0.08 0  1.2 0.08 0  1.22 0.08 0  1.24 0.08 0  1.26 0.08 0  1.28 0.08 0  1.3 0.08 0  1.32 0.08 0  1.34 0.08 0  1.36 0.08 0  1.38 0.08 0  1.4 0.08 0  1.42 0.08 0  1.44 0.08 0  1.46 0.08 0  1.48 0.08 0  1.5 0.08 0  1.52 0.08 0  1.54 0.08 0  1.56 0.08 0  1.58 0.08 0  1.6 0.08 0  1.62 0.08 0  1.64 0.08 0  1.66 0.08 0  1.68 0.08 0  1.7 0.08 0  1.72 0.08 0  1.74 0.08 0  1.76 0.08 0  1.78 0.08 0  1.8 0.08 0  1.82 0.08 0  1.84 0.08 0  1.86 0.08 0  1.88 0.08 0  1.9 0.08 0  1.92 0.08 0  1.94 0.08 0  1.96 0.08 0  1.98 0.08 0  2 0.08 0  0 0.1 0  0.02 0.1 0  0.04 0.1 0  0.06 0.1 0  0.08 0.1 0  0.1 0.1 0  0.12 0.1 0  0.14 0.1 0  0.16 0.1 0  0.18 0.1 0  0.2 0.1 0  0.22 0.1 0  0.24 0.1 0  0.26 0.1 0  0.28 0.1 0  0.3 0.1 0  0.32 0.1 0  0.34 0.1 0  0.36 0.1 0  0.38 0.1 0  0.4 0.1 0  0.42 0.1 0  0.44 0.1 0  0.46 0.1 0  0.48 0.1 0  0.5 0.1 0  0.52 0.1 0  0.54 0.1 0  0.5600000000000001 0.1 0  0.58 0.1 0  0.6 0.1 0  0.62 0.1 0  0.64 0.1 0  0.66 0.1 0  0.68 0.1 0  0.7 0.1 0  0.72 0.1 0  0.74 0.1 0  0.76 0.1 0  0.78 0.1 0  0.8 0.1 0  0.82 0.1 0  0.84 0.1 0  0.86 0.1 0  0.88 0.1 0  0.9 0.1 0  0.92 0.1 0  0.9399999999999999 0.1 0  0.96 0.1 0  0.98 0.1 0  1 0.1 0  1.02 0.1 0  1.04 0.1 0  1.06 0.1 0  1.08 0.1 0  1.1 0.1 0  1.12 0.1 0  1.14 0.1 0  1.16 0.1 0  1.18 0.1 0  1.2 0.1 0  1.22 0.1 0  1.24 0.1 0  1.26 0.1 0  1.28 0.1 0  1.3 0.1 0  1.32 0.1 0  1.34 0.1 0  1.36 0.1 0  1.38 0.1 0  1.4 0.1 0  1.42 0.1 0  1.44 0.1 0  1.46 0.1 0  1.48 0.1 0  1.5 0.1 0  1.52 0.1 0  1.54 0.1 0  1.56 0.1 0  1.58 0.1 0  1.6 0.1 0  1.62 0.1 0  1.64 0.1 0  1.66 0.1 0  1.68 0.1 0  1.7 0.1 0  1.72 0.1 0  1.74 0.1 0  1.76 0.1 0  1.78 0.1 0  1.8 0.1 0  1.82 0.1 0  1.84 0.1 0  1.86 0.1 0  1.88 0.1 0  1.9 0.1 0  1.92 0.1 0  1.94 0.1 0  1.96 0.1 0  1.98 0.1 0  2 0.1 0  0 0.12 0  0.02 0.12 0  0.04 0.12 0  0.06 0.12 0  0.08 0.12 0  0.1 0.12 0  0.12 0.12 0  0.14 0.12 0  0.16 0.12 0  0.18 0.12 0  0.2 0.12 0  0.22 0.12 0  0.24 0.12 0  0.26 0.12 0  0.28 0.12 0  0.3 0.12 0  0.32 0.12 0  0.34 0.12 0  0.36 0.12 0  0.38 0.12 0  0.4 0.12 0  0.42 0.12 0  0.44 0.12 0  0.46 0.12 0  0.48 0.12 0  0.5 0.12 0  0.52 0.12 0  0.54 0.12 0  0.5600000000000001 0.12 0  0.58 0.12 0  0.6 0.12 0  0.62 0.12 0  0.64 0.12 0  0.66 0.12 0  0.68 0.12 0  0.7 0.12 0  0.72 0.12 0  0.74 0.12 0  0.76 0.12 0  0.78 0.12 0  0.8 0.12 0  0.82 0.12 0  0.84 0.12 0  0.86 0.12 0  0.88 0.12 0  0.9 0.12 0  0.92 0.12 0  0.9399999999999999 0.12 0  0.96 0.12 0  0.98 0.12 0  1 0.12 0  1.02 0.12 0  1.04 0.12 0  1.06 0.12 0  1.08 0.12 0  1.1 0.12 0  1.12 0.12 0  1.14 0.12 0  1.16 0.12 0  1.18 0.12 0  1.2 0.12 0  1.22 0.12 0  1.24 0.12 0  1.26 0.12 0  1.28 0.12 0  1.3 0.12 0  1.32 0.12 0  1.34 0.12 0  1.36 0.12 0  1.38 0.12 0  1.4 0.12 0  1.42 0.12 0  1.44 0.12 0  1.46 0.12 0  1.48 0.12 0  1.5 0.12 0  1.52 0.12 0  1.54 0.12 0  1.56 0.12 0  1.58 0.12 0  1.6 0.12 0  1.62 0.12 0  1.64 0.12 0  1.66 0.12 0  1.68 0.12 0  1.7 0.12 0  1.72 0.12 0  1.74 0.12 0  1.76 0.12 0  1.78 0.12 0  1.8 0.12 0  1.82 0.12 0  1.84 0.12 0  1.86 0.12 0  1.88 0.12 0  1.9 0.12 0  1.92 0.12 0  1.94 0.12 0  1.96 0.12 0  1.98 0.12 0  2 0.12 0  0 0.14 0  0.02 0.14 0  0.04 0.14 0  0.06 0.14 0  0.08 0.14 0  0.1 0.14 0  0.12 0.14 0  0.14 0.14 0  0.16 0.14 0  0.18 0.14 0  0.2 0.14 0  0.22 0.14 0  0.24 0.14 0  0.26 0.14 0  0.28 0.14 0  0.3 0.14 0  0.32 0.14 0  0.34 0.14 0  0.36 0.14 0  0.38 0.14 0  0.4 0.14 0  0.42 0.14 0  0.44 0.14 0  0.46 0.14 0  0.48 0.14 0  0.5 0.14 0  0.52 0.14 0  0.54 0.14 0  0.5600000000000001 0.14 0  0.58 0.14 0  0.6 0.14 0  0.62 0.14 0  0.64 0.14 0  0.66 0.14 0  0.68 0.14 0  0.7 0.14 0  0.72 0.14 0  0.74 0.14 0  0.76 0.14 0  0.78 0.14 0  0.8 0.14 0  0.82 0.14 0  0.84 0.14 0  0.86 0.14 0  0.88 0.14 0  0.9 0.14 0  0.92 0.14 0  0.9399999999999999 0.14 0  0.96 0.14 0  0.98 0.14 0  1 0.14 0  1.02 0.14 0  1.04 0.14 0  1.06 0.14 0  1.08 0.14 0  1.1 0.14 0  1.12 0.14 0  1.14 0.14 0  1.16 0.14 0  1.18 0.14 0  1.2 0.14 0  1.22 0.14 0  1.24 0.14 0  1.26 0.14 0  1.28 0.14 0  1.3 0.14 0  1.32 0.14 0  1.34 0.14 0  1.36 0.14 0  1.38 0.14 0  1.4 0.14 0  1.42 0.14 0  1.44 0.14 0  1.46 0.14 0  1.48 0.14 0  1
[...]
<PointData  Scalars="sols[i]"> 
<DataArray  type="Float64"  Name="sols[i]"  format="ascii">4.1394370093313798e-04  2.7598939556937476e-04  2.7598939562784996e-04  2.7598939574760155e-04  2.7598939597747415e-04  2.7598939640749529e-04  2.7598939719983143e-04  2.7598939864176037e-04  2.7598940123499198e-04  2.7598940584430340e-04  2.7598941394248058e-04  2.7598942801218042e-04  2.7598945220693577e-04  2.7598949345007326e-04  2.7598956329465921e-04  2.7598968113933030e-04  2.7598987989171703e-04  2.7599021602982331e-04  2.7599078737088154e-04  2.7599176373114967e-04  2.7599343765304216e-04  2.7599630319292436e-04  2.7600116762553043e-04  2.7600928937303776e-04  2.7602251064617287e-04  2.7604331417564786e-04  2.7607469083100705e-04  2.7611969037144536e-04  2.7618059228482264e-04  2.7625781636728553e-04  2.7634894273741883e-04  2.7644832365752081e-04  2.7654761262536378e-04  2.7663722486738669e-04  2.7670829914415576e-04  2.7675435775974310e-04  2.7677204601042930e-04  2.7676106266531905e-04  2.7672389111065129e-04  2.7666548329993961e-04  2.7659253886570150e-04  2.7651234449393189e-04  2.7643154549211258e-04  2.7635527799937834e-04  2.7628683441125183e-04  2.7622779025534227e-04  2.7617839504696267e-04  2.7613803176993064e-04  2.7610562204578474e-04  2.7607992592798992e-04  2.7605973154155069e-04  2.7604395458719760e-04  2.7603167593978032e-04  2.7602214282530584e-04  2.7601475209281868e-04  2.7600902713434985e-04  2.7600459459388113e-04  2.7600116354985086e-04  2.7599850802187333e-04  2.7599645278141840e-04  2.7599486207981720e-04  2.7599363080503655e-04  2.7599267759372844e-04  2.7599193948404813e-04  2.7599136776857390e-04  2.7599092477769544e-04  2.7599058138395963e-04  2.7599031506618169e-04  2.7599010840934329e-04  2.7598994794414151e-04  2.7598982325107444e-04  2.7598972626990856e-04  2.7598965076793572e-04  2.7598959193022308e-04  2.7598954604289414e-04  2.7598951024679125e-04  2.7598948234409807e-04  2.7598946064503674e-04  2.7598944384569515e-04  2.7598943093124802e-04  2.7598942110101547e-04  2.7598941371277441e-04  2.7598940824363869e-04  2.7598940426422754e-04  2.7598940142223045e-04  2.7598939943162892e-04  2.7598939806453254e-04  2.7598939714371725e-04  2.7598939653507011e-04  2.7598939613993593e-04  2.7598939588774140e-04  2.7598939572933041e-04  2.7598939563130737e-04  2.7598939557150147e-04  2.7598939553549425e-04  2.7598939551410056e-04  2.7598939550157385e-04  2.7598939549439128e-04  2.7598939549045969e-04  2.7598939548861986e-04  8.2762687712625025e-04  2.7598939556347870e-04  1.3800488130414216e-04  1.3800488133549455e-04  1.3800488140128703e-04  1.3800488152895991e-04  1.3800488176978767e-04  1.3800488221697482e-04  1.3800488303696376e-04  1.3800488452257154e-04  1.3800488718175154e-04  1.3800489188396455e-04  1.3800490009951679e-04  1.3800491429021019e-04  1.3800493855149824e-04  1.3800497968600956e-04  1.3800504904252459e-04  1.3800516574851400e-04  1.3800536250019530e-04  1.3800569598001230e-04  1.3800626533689954e-04  1.3800724386104491e-04  1.3800893030873728e-04  1.3801182548396664e-04  1.3801673334255950e-04  1.3802486965411813e-04  1.3803793229486461e-04  1.3805805036023848e-04  1.3808750570430738e-04  1.3812815276202081e-04  1.3818059599673990e-04  1.3824340047430115e-04  1.3831272410861362e-04  1.3838263839143720e-04  1.3844619143753872e-04  1.3849691756921462e-04  1.3853012593505583e-04  1.3854341350281497e-04  1.3853651034940459e-04  1.3851107356298666e-04  1.3847055733326704e-04  1.3841974073227655e-04  1.3836386138750090e-04  1.3830767800261738e-04  1.3825482497040279e-04  1.3820758263556661e-04  1.3816699434952406e-04  1.3813316974589404e-04  1.3810562449296674e-04  1.3808357035613138e-04  1.3806612429464823e-04  1.3805243682137844e-04  1.3804175632822270e-04  1.3803345089772825e-04  1.3802700604659439e-04  1.3802201125616908e-04  1.3801814303854710e-04  1.3801514845239075e-04  1.3801283063900221e-04  1.3801103679704843e-04  1.3800964849441195e-04  1.3800857400458514e-04  1.3800774231091184e-04  1.3800709844524013e-04  1.3800659987306933e-04  1.3800621369121439e-04  1.3800591445439921e-04  1.3800568248874840e-04  1.3800550258331740e-04  1.3800536297612324e-04  1.3800525456986342e-04  1.3800517032658863e-04  1.3800510480135823e-04  1.3800505378331500e-04  1.3800501401927426e-04  1.3800498300018592e-04  1.3800495879507667e-04  1.3800493992059031e-04  1.3800492523732675e-04  1.3800491386692506e-04  1.3800490512611599e-04  1.3800489847553101e-04  1.3800489348172876e-04  1.3800488979075077e-04  1.3800488711095815e-04  1.3800488520240205e-04  1.3800488386999711e-04  1.3800488295832565e-04  1.3800488234672664e-04  1.3800488194416484e-04  1.3800488168394116e-04  1.3800488151856534e-04  1.3800488141512709e-04  1.3800488135138473e-04  1.3800488131264916e-04  1.3800488128941807e-04  1.3800488127566405e-04  1.3800488126763455e-04  1.3800488126303596e-04  1.3800488126050479e-04  1.3800488125927310e-04  2.7598939548857454e-04  2.7598939560211869e-04  1.3800488132652088e-04  1.3800488137438553e-04  1.3800488147580912e-04  1.3800488167474106e-04  1.3800488205443991e-04  1.3800488276819275e-04  1.3800488409316429e-04  1.3800488652270236e-04  1.3800489092154680e-04  1.3800489878227810e-04  1.3800491264288829e-04  1.3800493676051860e-04  1.3800497819854257e-04  1.3800504860350148e-04  1.3800516719005208e-04  1.3800536594565411e-04  1.3800569904312012e-04  1.3800626025888934e-04  1.3800721523323948e-04  1.3800885979448570e-04  1.3801172035002933e-04  1.3801671406969029e-04  1.3802537757443397e-04  1.3804014081211343e-04  1.3806455543793178e-04  1.3810328638778408e-04  1.3816158422466805e-04  1.3824398776995120e-04  1.3835232579204981e-04  1.3848372815325637e-04  1.3862968381211688e-04  1.3877676600639207e-04  1.3890924391951742e-04  1.3901291051332548e-04  1.3907818406379166e-04  1.3910084578300902e-04  1.3908098916536396e-04  1.3902251134785573e-04  1.3893327773185048e-04  1.3882410731031611e-04  1.3870658187276541e-04  1.3859077397675688e-04  1.3848390534369889e-04  1.3839007032491056e-04  1.3831072810500380e-04  1.3824551200525257e-04  1.3819300691647385e-04  1.3815134841126545e-04  1.3811861917065166e-04  1.3809306726465527e-04  1.3807319607645065e-04  1.3805777807078255e-04  1.3804583096510055e-04  1.3803658004108658e-04  1.3802941944069609e-04  1.3802387775454196e-04  1.3801958923298101e-04  1.3801627051327311e-04  1.3801370220604205e-04  1.3801171449069244e-04  1.3801017592581749e-04  1.3800898479070754e-04  1.3800806238595953e-04  1.3800734784344870e-04  1.3800679410097040e-04  1.3800636477733391e-04  1.3800603174724519e-04  1.3800577326256785e-04  1.3800557250031315e-04  1.3800541644319524e-04  1.3800529501831690e-04  1.3800520043504667e-04  1.3800512667555282e-04  1.3800506910129022e-04  1.3800502414655882e-04  1.3800498907677933e-04  1.3800496179506812e-04  1.3800494068621713e-04  1.3800492449187710e-04  1.3800491221386223e-04  1.3800490304352573e-04  1.3800489631426554e-04  1.3800489147243602e-04  1.3800488806059403e-04  1.3800488570709781e-04  1.3800488411754936e-04  1.3800488306564527e-04  1.3800488238287976e-04  1.3800488194767952e-04  1.3800488167491911e-04  1.3800488150661965e-04  1.3800488140427119e-04  1.3800488134286794e-04  1.3800488130649767e-04  1.3800488128522286e-04  1.3800488127294622e-04  1.3800488126599299e-04  1.3800488126220557e-04  1.3800488126038279e-04  2.7598939549020800e-04  2.7598939567366780e-04  1.3800488136909777e-04  1.3800488144912159e-04  1.3800488162027272e-04  1.3800488195999476e-04  1.3800488261689239e-04  1.3800488386839303e-04  1.3800488622318246e-04  1.3800489059901766e-04  1.3800489862477583e-04  1.3800491314266256e-04  1.3800493902625633e-04  1.3800498449017455e-04  1.3800506316609637e-04  1.3800519740520396e-04  1.3800542365532650e-04  1.3800580161406670e-04  1.3800643070461871e-04  1.3800748118441273e-04  1.3800925419939938e-04  1.3801229653921735e-04  1.3801761107032104e-04  1.3802701648494257e-04  1.3804370219456982e-04  1.3807296174636537e-04  1.3812292666003201e-04  1.3820483999386104e-04  1.3833207859655230e-04  1.3851705148324600e-04  1.3876585126508528e-04  1.3907265017234629e-04  1.3941692797406159e-04  1.3976496880716881e-04  1.4007670770281762e-04  1.4031667512944785e-04  1.4046274366177116e-04  1.4050695696583184e-04  1.4045065176119647e-04  1.4030333570454586e-04  1.4008490644421592e-04  1.3982297414971289e-04  1.3954641459517888e-04  1.3927912600307957e-04  1.3903705498630683e-04  1.3882815958643415e-04  1.3865420771503768e-04  1.3851306902932175e-04  1.3840063275218518e-04  1.3831214849076729e-04  1.3824304352978776e-04  1.3818931590745432e-04  1.3814764785648133e-04  1.3811537472034694e-04  1.3809039469680606e-04  1.3807106544011711e-04  1.3805611006480236e-04  1.3804453880598993e-04  1.3803558557524281e-04  1.3802865768627274e-04  1.3802329663557036e-04  1.3801914766625517e-04  1.3801593625264666e-04  1.3801344997653521e-04  1.3801152452377972e-04  1.3801003283692325e-04  1.3800887670059597e-04  1.3800798020553053e-04  1.3800728467488316e-04  1.3800674473568879e-04  1.3800632528557639e-04  1.3800599915707713e-04  1.3800574532294894e-04  1.3800554751821427e-04  1.3800539318088392e-04  1.3800527263408511e-04  1.3800517844841535e-04  1.3800510493685865e-04  1.3800504774746298e-04  1.3800500353161442e-04  1.3800496967679090e-04  1.3800494409985765e-04  1.3800492509865702e-04  1.3800491125623727e-04  1.3800490138642739e-04  1.3800489450558809e-04  1.3800488981580760e-04  1.3800488668909688e-04  1.3800488464778737e-04  1.3800488334099521e-04  1.3800488251946609e-04  1.3800488201154960e-04  1.3800488170230717e-04  1.3800488151667490e-04  1.3800488140670500e-04  1.3800488134236557e-04  1.3800488130517966e-04  1.3800488128396936e-04  1.3800488127208824e-04  1.3800488126568087e-04  1.3800488126262378e-04  2.7598939549364546e-04  2.7598939579593984e-04  1.3800488144282238e-04  1.3800488157990511e-04  1.3800488187596012e-04  1.3800488247058841e-04  1.3800488363523302e-04  1.3800488588388556e-04  1.3800489017276477e-04  1.3800489825211050e-04  1.3800491327187284e-04  1.3800494079966850e-04  1.3800499048913218e-04  1.3800507874749544e-04  1.3800523291273344e-04  1.3800549772580129e-04  1.3800594545878772e-04  1.3800669242374489e-04  1.3800792786367757e-04  1.3800996867005701e-04  1.3801336878818590e-04  1.3801914044916610e-04  1.3802918814156837e-04  1.3804710655738052e-04  1.3807951236918716e-04  1.3813797806846341e-04  1.3824127417530767e-04  1.3841687478824486e-04  1.3869958567912366e-04  1.3912436569714056e-04  1.3971174852926612e-04  1.4045150419422813e-04  1.4129412885308286e-04  1.4215251863587946e-04  1.4291934957452138e-04  1.4350031574798892e-04  1.4384163285529244e-04  1.4392960171834155e-04  1.4376935999457085e-04  1.4338358978545560e-04  1.4282591704033014e-04  1.4217149910145108e-04  1.4149608172295700e-04  1.4085801369567773e-04  1.4029253491383290e-04  1.3981394381100160e-04  1.3942194567497984e-04  1.3910818064490931e-04  1.3886088321427736e-04  1.3866780575407938e-04  1.3851785080993290e-04  1.3840169751423904e-04  1.3831183270784128e-04  1.3824233668526019e-04  1.3818859902277932e-04  1.3814704461123423e-04  1.3811490686850737e-04  1.3809004824124455e-04  1.3807081769152868e-04  1.3805593945314442e-04  1.3804442736268542e-04  1.3803551873656987e-04  1.3802862352051712e-04  1.3802328526567513e-04  1.3801915099266029e-04  1.3801594784098876e-04  1.3801346495738236e-04  1.3801153941876704e-04  1.3801004530362092e-04  1.3800888523864862e-04  1.3800798388015719e-04  1.3800728290157540e-04  1.3800673714775829e-04  1.3800631168578784e-04  1.3800597954001823e-04  1.3800571994435144e-04  1.3800551697827959e-04  1.3800535848153676e-04  1.3800523517088691e-04  1.3800513991269289e-04  1.3800506713210735e-04  1.3800501235703821e-04  1.3800497189747456e-04  1.3800494264914174e-04  1.3800492199308258e-04  1.3800490775168261e-04  1.3800489816380635e-04  1.3800489185452372e-04  1.3800488779050106e-04  1.3800488522374904e-04  1.3800488363149770e-04  1.3800488265978099e-04  1.3800488207555290e-04  1.3800488172909463e-04  1.3800488152625797e-04  1.3800488140894182e-04  1.3800488134189470e-04  1.3800488130406711e-04  1.3800488128309690e-04  1.3800488127189254e-04  1.3800488126658380e-04  2.7598939549975635e-04  2.7598939599667938e-04  1.3800488156512106e-04  1.3800488179946011e-04  1.3800488231064442e-04  1.3800488334948644e-04  1.3800488541036487e-04  1.3800488944318436e-04  1.3800489724214319e-04  1.3800491214239561e-04  1.3800494023947650e-04  1.3800499246981250e-04  1.3800508806158923e-04  1.3800526008691367e-04  1.3800556412325139e-04  1.3800609141163708e-04  1.3800698861123777e-04  1.3800848807993379e-04  1.3801095771808381e-04  1.3801499281354096e-04  1.3802160389279287e-04  1.3803262005972173e-04  1.3805154361517646e-04  1.3808525681872785e-04  1.3814712651467160e-04  1.3826196840297189e-04  1.3847262738146449e-04  1.3884612438848511e-04  1.3947404344631057e-04  1.4045792040323337e-04  1.4186983102934476e-04  1.4370347275709830e-04  1.4584653039479797e-04  1.4807060911019976e-04  1.5006827904225821e-04  1.5156211942477229e-04  1.5240683465990223e-04  1.5258490390147097e-04  1.5210984587592729e-04  1.5103392447216236e-04  1.4952083870665574e-04  1.4779722449799471e-04  1.4607545516485157e-04  1.4450002098169949e-04  1.4314432495288838e-04  1.4202570969455881e-04  1.4112832064938535e-04  1.4042180574328644e-04  1.3987196910930633e-04  1.3944657488331895e-04  1.3911823966022711e-04  1.3886497336152982e-04  1.3866956853616136e-04  1.3851873459717564e-04  1.3840225562789166e-04  1.3831226932864814e-04  1.3824272108228921e-04  1.3818895135248716e-04  1.3814737059631918e-04  1.3811520962251787e-04  1.3809033050450961e-04  1.3807108110660464e-04  1.3805618388565023e-04  1.3804465111735728e-04  1.3803571940043462e-04  1.3802879890816670e-04  1.3802343407749707e-04  1.3801927303471102e-04  1.3801604386725442e-04  1.3801353630740274e-04  1.3801158763159031e-04  1.3801007183565501e-04  1.3800889134472422e-04  1.3800797066328802e-04  1.3800725150353612e-04  1.3800668903002572e-04  1.3800624892688841e-04  1.3800590505196395e-04  1.3800563750686337e-04  1.3800543102555289e-04  1.3800527365284872e-04  1.3800515572716474e-04  1.3800506918386994e-04  1.3800500715809675e-04  1.3800496381289240e-04  1.3800493428745968e-04  1.3800491466978826e-04  1.3800490193684336e-04  1.3800489384847836e-04  1.3800488880970780e-04  1.3800488572533764e-04  1.3800488386695730e-04  1.3800488276326318e-04  1.3800488211642483e-04  1.3800488174202320e-04  1.3800488152787259e-04  1.3800488140681060e-04  1.3800488133923166e-04  1.3800488130214872e-04  1.3800488128251512e-04  1.3800488127327189e-04  2.7598939551006321e-04  2.7598939631749936e-04  1.3800488176249614e-04  1.3800488215832054e-04  1.3800488303058930e-04  1.3800488482428643e-04  1.3800488842890588e-04  1.3800489557954260e-04  1.3800490960598803e-04  1.3800493680063820e-04  1.3800498885923766e-04  1.3800508712446239e-04  1.3800526974828411e-04  1.3800560337674553e-04  1.3800620149761268e-04  1.3800725210098974e-04  1.3800905787237380e-04  1.3801209368399336e-04  1.3801709219737359e-04  1.3802518892568202e-04  1.3803821628766887e-04  1.3805937626114757e-04  1.3809480807207807e-04  1.3815705107228477e-04  1.3827200342144704e-04  1.3849126786111320e-04  1.3891079896381574e-04  1.3969325842523236e-04  1.4108335324346079e-04  1.4339114844017496e-04  1.4689321039389655e-04  1.5168580804503625e-04  1.5758904696161350e-04  1.6401715875511300e-04  1.6996863814087255e-04  1.7442645976987380e-04  1.7686366082640226e-04  1.7727527014271236e-04  1.7566975925130472e-04  1.7216012604301888e-04  1.6741095490854194e-04  1.6228047859534871e-04  1.5744746167861099e-04  1.5326015710900170e-04  1.4982613014390134e-04  1.4710269177640095e-04  1.4498470825693359e-04  1.4335691984755086e-04  1.4211286502240609e-04  1.4116262591297075e-04  1.4043564907856353e-04  1.3987833753128631e-04  1.3945021521573765e-04  1.3912078144759116e-04  1.3886698914558491e-04  1.3867127489105544e-04  1.3852021277464623e-04  1.3840354062514263e-04  1.3831338825969289e-04  1.3824370196621315e-04  1.3818982011821671e-04  1.3814814651736949e-04  1.3811590361932998e-04  1.3809094670717774e-04  1.3807161997650788e-04  1.3805664524706821e-04  1.3804503613297882e-04  1.3803603122447249e-04  1.3802904230697174e-04  1.3802361455061469e-04  1.3801939592558639e-04  1.3801611377143702e-04  1.3801355689612349e-04  1.3801156188007288e-04  1.3801000258087910e-04  1.3800878205762611e-04  1.3800782626345012e-04  1.3800707897041655e-04  1.3800649753766513e-04  1.3800604931801769e-04  1.3800570867649093e-04  1.3800545470343660e-04  1.3800526970076933e-04  1.3800513840222004e-04  1.3800504772741270e-04  1.3800498678325529e-04  1.3800494686591028e-04  1.3800492133533003e-04  1.3800490535223649e-04  1.3800489553490519e-04  1.3800488960584228e-04  1.3800488607883607e-04  1.3800488400942507e-04  1.3800488281064290e-04  1.3800488212454453e-04  1.3800488173641880e-04  1.3800488151938337e-04  1.3800488139952211e-04  1.3800488133442645e-04  1.3800488130027999e-04  1.3800488128430744e-04  2.7598939552701080e-04  2.7598939681855168e-04  1.3800488207375429e-04  1.3800488273162868e-04  1.3800488419633882e-04  1.3800488724435519e-04  1.3800489345019328e-04  1.3800490593330326e-04  1.3800493077993734e-04  1.3800497969296440e-04  1.3800507482193794e-04  1.3800525734793495e-04  1.3800560229678104e-04  1.3800624321509290e-04  1.3800741158058629e-04  1.3800949666548660e-04  1.3801313136371649e-04  1.3801930826507218e-04  1.3802953203338237e-04  1.3804603568257393e-04  1.3807217790225336e-04  1.3811340697895719e-04  1.3817982734700871e-04  1.3829270079679728e-04  1.3849924094310931e-04  1.3890215337432308e-04  1.3971062052933622e-04  1.4131650867511852e-04  1.4438898730385685e-04  1.4995499089446546e-04  1.5925251307483709e-04  1.7339621818487222e-04  1.9317954571998545e-04  2.1804375640110322e-04  2.4423664489517941e-04  2.6538421624785542e-04  2.7702701731974471e-04  2.7889265031514807e-04  2.7049630548534666e-04  2.5218643311096257e-04  2.2940981043659142e-04  2.0787805800818746e-04  1.9030208324810407e-04  1.7683411057568693e-04  1.6683838753703118e-04  1.5949992988854389e-04  1.5411272894862323e-04  1.5014818021993279e-04  1.4721370476009895e-04  1.4502212874743900e-04  1.4337196436517405e-04  1.4212159373658788e-04  1.4116927236890775e-04  1.4044117804987285e-04  1.3988308039519594e-04  1.3945435085484665e-04  1.3912438117986720e-04  1.3887009640964617e-04  1.3867395359602210e-04  1.3852254139862783e-04  1.3840559212162238e-04  1.3831521478968218e-04  1.3824533133812073e-04  1.3819126191856623e-04  1.3814940148283082e-04  1.3811697179763022e-04  1.3809183227163195e-04  1.3807233235819364e-04  1.3805719766659245e-04  1.3804544308926038e-04  1.3803630620066749e-04  1.3802919638415982e-04  1.3802365611182950e-04  1.3801933134548536e-04  1.3801594888798307e-04  1.3801329901391520e-04  1.3801122191762905e-04  1.3800959673560619e-04  1.3800833223849825e-04  1.3800735876178950e-04  1.3800662141615557e-04  1.3800607490295562e-04  1.3800568022946251e-04  1.3800540325757427e-04  1.3800521452587291e-04  1.3800508954966902e-04  1.3800500896193066e-04  1.3800495822175965e-04  1.3800492693665076e-04  1.3800490799588836e-04  1.3800489671071539e-04  1.3800489008224110e-04  1.3800488623954529e-04  1.3800488403905632e-04  1.3800488279374485e-04  1.3800488209706472e-04  1.3800488171177906e-04  1.3800488150132457e-04  1.3800488138824204e-04  1.3800488132949349e-04  1.3800488130219726e-04  2.7598939555436653e-04  2.7598939758360095e-04  1.3800488255364790e-04  1.3800488362706952e-04  1.3800488604172865e-04  1.3800489112690366e-04  1.3800490161750172e-04  1.3800492301848183e-04  1.3800496625438106e-04  1.3800505271388888e-04  1.3800522365850466e-04  1.3800555735880463e-04  1.3800619943422823e-04  1.3800741475306717e-04  1.3800967251098614e-04  1.3801377839004421e-04  1.3802106608879858e-04  1.3803365089405802e-04  1.3805472955658152e-04  1.3808890280233340e-04  1.3814258346112518e-04  1.3822497850380112e-04  1.38351451356