<?xml version="1.0"?>
<VTKFile type="UnstructuredGrid"  version="0.1"  >
<UnstructuredGrid>
<Piece  NumberOfPoints="5151" NumberOfCells="10000">
<Points>
<DataArray  type="Float64"  NumberOfComponents="3"  format="ascii">0 0 0  0.02 0 0  0.04 0 0  0.06 0 0  0.08 0 0  0.1 0 0  0.12 0 0  0.14 0 0  0.16 0 0  0.18 0 0  0.2 0 0  0.22 0 0  0.24 0 0  0.26 0 0  0.28 0 0  0.3 0 0  0.32 0 0  0.34 0 0  0.36 0 0  0.38 0 0  0.4 0 0  0.42 0 0  0.44 0 0  0.46 0 0  0.48 0 0  0.5 0 0  0.52 0 0  0.54 0 0  0.5600000000000001 0 0  0.58 0 0  0.6 0 0  0.62 0 0  0.64 0 0  0.66 0 0  0.68 0 0  0.7 0 0  0.72 0 0  0.74 0 0  0.76 0 0  0.78 0 0  0.8 0 0  0.82 0 0  0.84 0 0  0.86 0 0  0.88 0 0  0.9 0 0  0.92 0 0  0.9399999999999999 0 0  0.96 0 0  0.98 0 0  1 0 0  1.02 0 0  1.04 0 0  1.06 0 0  1.08 0 0  1.1 0 0  1.12 0 0  1.14 0 0  1.16 0 0  1.18 0 0  1.2 0 0  1.22 0 0  1.24 0 0  1.26 0 0  1.28 0 0  1.3 0 0  1.32 0 0  1.34 0 0  1.36 0 0  1.38 0 0  1.4 0 0  1.42 0 0  1.44 0 0  1.46 0 0  1.48 0 0  1.5 0 0  1.52 0 0  1.54 0 0  1.56 0 0  1.58 0 0  1.6 0 0  1.62 0 0  1.64 0 0  1.66 0 0  1.68 0 0  1.7 0 0  1.72 0 0  1.74 0 0  1.76 0 0  1.78 0 0  1.8 0 0  1.82 0 0  1.84 0 0  1.86 0 0  1.88 0 0  1.9 0 0  1.92 0 0  1.94 0 0  1.96 0 0  1.98 0 0  2 0 0  0 0.02 0  0.02 0.02 0  0.04 0.02 0  0.06 0.02 0  0.08 0.02 0  0.1 0.02 0  0.12 0.02 0  0.14 0.02 0  0.16 0.02 0  0.18 0.02 0  0.2 0.02 0  0.22 0.02 0  0.24 0.02 0  0.26 0.02 0  0.28 0.02 0  0.3 0.02 0  0.32 0.02 0  0.34 0.02 0  0.36 0.02 0  0.38 0.02 0  0.4 0.02 0  0.42 0.02 0  0.44 0.02 0  0.46 0.02 0  0.48 0.02 0  0.5 0.02 0  0.52 0.02 0  0.54 0.02 0  0.5600000000000001 0.02 0  0.58 0.02 0  0.6 0.02 0  0.62 0.02 0  0.64 0.02 0  0.66 0.02 0  0.68 0.02 0  0.7 0.02 0  0.72 0.02 0  0.74 0.02 0  0.76 0.02 0  0.78 0.02 0  0.8 0.02 0  0.82 0.02 0  0.84 0.02 0  0.86 0.02 0  0.88 0.02 0  0.9 0.02 0  0.92 0.02 0  0.9399999999999999 0.02 0  0.96 0.02 0  0.98 0.02 0  1 0.02 0  1.02 0.02 0  1.04 0.02 0  1.06 0.02 0  1.08 0.02 0  1.1 0.02 0  1.12 0.02 0  1.14 0.02 0  1.16 0.02 0  1.18 0.02 0  1.2 0.02 0  1.22 0.02 0  1.24 0.02 0  1.26 0.02 0  1.28 0.02 0  1.3 0.02 0  1.32 0.02 0  1.34 0.02 0  1.36 0.02 0  1.38 0.02 0  1.4 0.02 0  1.42 0.02 0  1.44 0.02 0  1.46 0.02 0  1.48 0.02 0  1.5 0.02 0  1.52 0.02 0  1.54 0.02 0  1.56 0.02 0  1.58 0.02 0  1.6 0.02 0  1.62 0.02 0  1.64 0.02 0  1.66 0.02 0  1.68 0.02 0  1.7 0.02 0  1.72 0.02 0  1.74 0.02 0  1.76 0.02 0  1.78 0.02 0  1.8 0.02 0  1.82 0.02 0  1.84 0.02 0  1.86 0.02 0  1.88 0.02 0  1.9 0.02 0  1.92 0.02 0  1.94 0.02 0  1.96 0.02 0  1.98 0.02 0  2 0.02 0  0 0.04 0  0.02 0.04 0  0.04 0.04 0  0.06 0.04 0  0.08 0.04 0  0.1 0.04 0  0.12 0.04 0  0.14 0.04 0  0.16 0.04 0  0.18 0.04 0  0.2 0.04 0  0.22 0.04 0  0.24 0.04 0  0.26 0.04 0  0.28 0.04 0  0.3 0.04 0  0.32 0.04 0  0.34 0.04 0  0.36 0.04 0  0.38 0.04 0  0.4 0.04 0  0.42 0.04 0  0.44 0.04 0  0.46 0.04 0  0.48 0.04 0  0.5 0.04 0  0.52 0.04 0  0.54 0.04 0  0.5600000000000001 0.04 0  0.58 0.04 0  0.6 0.04 0  0.62 0.04 0  0.64 0.04 0  0.66 0.04 0  0.68 0.04 0  0.7 0.04 0  0.72 0.04 0  0.74 0.04 0  0.76 0.04 0  0.78 0.04 0  0.8 0.04 0  0.82 0.04 0  0.84 0.04 0  0.86 0.04 0  0.88 0.04 0  0.9 0.04 0  0.92 0.04 0  0.9399999999999999 0.04 0  0.96 0.04 0  0.98 0.04 0  1 0.04 0  1.02 0.04 0  1.04 0.04 0  1.06 0.04 0  1.08 0.04 0  1.1 0.04 0  1.12 0.04 0  1.14 0.04 0  1.16 0.04 0  1.18 0.04 0  1.2 0.04 0  1.22 0.04 0  1.24 0.04 0  1.26 0.04 0  1.28 0.04 0  1.3 0.04 0  1.32 0.04 0  1.34 0.04 0  1.36 0.04 0  1.38 0.04 0  1.4 0.04 0  1.42 0.04 0  1.44 0.04 0  1.46 0.04 0  1.48 0.04 0  1.5 0.04 0  1.52 0.04 0  1.54 0.04 0  1.56 0.04 0  1.58 0.04 0  1.6 0.04 0  1.62 0.04 0  1.64 0.04 0  1.66 0.04 0  1.68 0.04 0  1.7 0.04 0  1.72 0.04 0  1.74 0.04 0  1.76 0.04 0  1.78 0.04 0  1.8 0.04 0  1.82 0.04 0  1.84 0.04 0  1.86 0.04 0  1.88 0.04 0  1.9 0.04 0  1.92 0.04 0  1.94 0.04 0  1.96 0.04 0  1.98 0.04 0  2 0.04 0  0 0.06 0  0.02 0.06 0  0.04 0.06 0  0.06 0.06 0  0.08 0.06 0  0.1 0.06 0  0.12 0.06 0  0.14 0.06 0  0.16 0.06 0  0.18 0.06 0  0.2 0.06 0  0.22 0.06 0  0.24 0.06 0  0.26 0.06 0  0.28 0.06 0  0.3 0.06 0  0.32 0.06 0  0.34 0.06 0  0.36 0.06 0  0.38 0.06 0  0.4 0.06 0  0.42 0.06 0  0.44 0.06 0  0.46 0.06 0  0.48 0.06 0  0.5 0.06 0  0.52 0.06 0  0.54 0.06 0  0.5600000000000001 0.06 0  0.58 0.06 0  0.6 0.06 0  0.62 0.06 0  0.64 0.06 0  0.66 0.06 0  0.68 0.06 0  0.7 0.06 0  0.72 0.06 0  0.74 0.06 0  0.76 0.06 0  0.78 0.06 0  0.8 0.06 0  0.82 0.06 0  0.84 0.06 0  0.86 0.06 0  0.88 0.06 0  0.9 0.06 0  0.92 0.06 0  0.9399999999999999 0.06 0  0.96 0.06 0  0.98 0.06 0  1 0.06 0  1.02 0.06 0  1.04 0.06 0  1.06 0.06 0  1.08 0.06 0  1.1 0.06 0  1.12 0.06 0  1.14 0.06 0  1.16 0.06 0  1.18 0.06 0  1.2 0.06 0  1.22 0.06 0  1.24 0.06 0  1.26 0.06 0  1.28 0.06 0  1.3 0.06 0  1.32 0.06 0  1.34 0.06 0  1.36 0.06 0  1.38 0.06 0  1.4 0.06 0  1.42 0.06 0  1.44 0.06 0  1.46 0.06 0  1.48 0.06 0  1.5 0.06 0  1.52 0.06 0  1.54 0.06 0  1.56 0.06 0  1.58 0.06 0  1.6 0.06 0  1.62 0.06 0  1.64 0.06 0  1.66 0.06 0  1.68 0.06 0  1.7 0.06 0  1.72 0.06 0  1.74 0.06 0  1.76 0.06 0  1.78 0.06 0  1.8 0.06 0  1.82 0.06 0  1.84 0.06 0  1.86 0.06 0  1.88 0.06 0  1.9 0.06 0  1.92 0.06 0  1.94 0.06 0  1.96 0.06 0  1.98 0.06 0  2 0.06 0  0 0.08 0  0.02 0.08 0  0.04 0.08 0  0.06 0.08 0  0.08 0.08 0  0.1 0.08 0  0.12 0.08 0  0.14 0.08 0  0.16 0.08 0  0.18 0.08 0  0.2 0.08 0  0.22 0.08 0  0.24 0.08 0  0.26 0.08 0  0.28 0.08 0  0.3 0.08 0  0.32 0.08 0  0.34 0.08 0  0.36 0.08 0  0.38 0.08 0  0.4 0.08 0  0.42 0.08 0  0.44 0.08 0  0.46 0.08 0  0.48 0.08 0  0.5 0.08 0  0.52 0.08 0  0.54 0.08 0  0.5600000000000001 0.08 0  0.58 0.08 0  0.6 0.08 0  0.62 0.08 0  0.64 0.08 0  0.66 0.08 0  0.68 0.08 0  0.7 0.08 0  0.72 0.08 0  0.74 0.08 0  0.76 0.08 0  0.78 0.08 0  0.8 0.08 0  0.82 0.08 0  0.84 0.08 0  0.86 0.08 0  0.88 0.08 0  0.9 0.08 0  0.92 0.08 0  0.9399999999999999 0.08 0  0.96 0.08 0  0.98 0.08 0  1 0.08 0  1.02 0.08 0  1.04 0.08 0  1.06 0.08 0  1.08 0.08 0  1.1 0.08 0  1.12 0.08 0  1.14 0.08 0  1.16 0.08 0  1.18 0.08 0  1.2 0.08 0  1.22 0.08 0  1.24 0.08 0  1.26 0.08 0  1.28 0.08 0  1.3 0.08 0  1.32 0.08 0  1.34 0.08 0  1.36 0.08 0  1.38 0.08 0  1.4 0.08 0  1.42 0.08 0  1.44 0.08 0  1.46 0.08 0  1.48 0.08 0  1.5 0.08 0  1.52 0.08 0  1.54 0.08 0  1.56 0.08 0  1.58 0.08 0  1.6 0.08 0  1.62 0.08 0  1.64 0.08 0  1.66 0.08 0  1.68 0.08 0  1.7 0.08 0  1.72 0.08 0  1.74 0.08 0  1.76 0.08 0  1.78 0.08 0  1.8 0.08 0  1.82 0.08 0  1.84 0.08 0  1.86 0.08 0  1.88 0.08 0  1.9 0.08 0  1.92 0.08 0  1.94 0.08 0  1.96 0.08 0  1.98 0.08 0  2 0.08 0  0 0.1 0  0.02 0.1 0  0.04 0.1 0  0.06 0.1 0  0.08 0.1 0  0.1 0.1 0  0.12 0.1 0  0.14 0.1 0  0.16 0.1 0  0.18 0.1 0  0.2 0.1 0  0.22 0.1 0  0.24 0.1 0  0.26 0.1 0  0.28 0.1 0  0.3 0.1 0  0.32 0.1 0  0.34 0.1 0  0.36 0.1 0  0.38 0.1 0  0.4 0.1 0  0.42 0.1 0  0.44 0.1 0  0.46 0.1 0  0.48 0.1 0  0.5 0.1 0  0.52 0.1 0  0.54 0.1 0  0.5600000000000001 0.1 0  0.58 0.1 0  0.6 0.1 0  0.62 0.1 0  0.64 0.1 0  0.66 0.1 0  0.68 0.1 0  0.7 0.1 0  0.72 0.1 0  0.74 0.1 0  0.76 0.1 0  0.78 0.1 0  0.8 0.1 0  0.82 0.1 0  0.84 0.1 0  0.86 0.1 0  0.88 0.1 0  0.9 0.1 0  0.92 0.1 0  0.9399999999999999 0.1 0  0.96 0.1 0  0.98 0.1 0  1 0.1 0  1.02 0.1 0  1.04 0.1 0  1.06 0.1 0  1.08 0.1 0  1.1 0.1 0  1.12 0.1 0  1.14 0.1 0  1.16 0.1 0  1.18 0.1 0  1.2 0.1 0  1.22 0.1 0  1.24 0.1 0  1.26 0.1 0  1.28 0.1 0  1.3 0.1 0  1.32 0.1 0  1.34 0.1 0  1.36 0.1 0  1.38 0.1 0  1.4 0.1 0  1.42 0.1 0  1.44 0.1 0  1.46 0.1 0  1.48 0.1 0  1.5 0.1 0  1.52 0.1 0  1.54 0.1 0  1.56 0.1 0  1.58 0.1 0  1.6 0.1 0  1.62 0.1 0  1.64 0.1 0  1.66 0.1 0  1.68 0.1 0  1.7 0.1 0  1.72 0.1 0  1.74 0.1 0  1.76 0.1 0  1.78 0.1 0  1.8 0.1 0  1.82 0.1 0  1.84 0.1 0  1.86 0.1 0  1.88 0.1 0  1.9 0.1 0  1.92 0.1 0  1.94 0.1 0  1.96 0.1 0  1.98 0.1 0  2 0.1 0  0 0.12 0  0.02 0.12 0  0.04 0.12 0  0.06 0.12 0  0.08 0.12 0  0.1 0.12 0  0.12 0.12 0  0.14 0.12 0  0.16 0.12 0  0.18 0.12 0  0.2 0.12 0  0.22 0.12 0  0.24 0.12 0  0.26 0.12 0  0.28 0.12 0  0.3 0.12 0  0.32 0.12 0  0.34 0.12 0  0.36 0.12 0  0.38 0.12 0  0.4 0.12 0  0.42 0.12 0  0.44 0.12 0  0.46 0.12 0  0.48 0.12 0  0.5 0.12 0  0.52 0.12 0  0.54 0.12 0  0.5600000000000001 0.12 0  0.58 0.12 0  0.6 0.12 0  0.62 0.12 0  0.64 0.12 0  0.66 0.12 0  0.68 0.12 0  0.7 0.12 0  0.72 0.12 0  0.74 0.12 0  0.76 0.12 0  0.78 0.12 0  0.8 0.12 0  0.82 0.12 0  0.84 0.12 0  0.86 0.12 0  0.88 0.12 0  0.9 0.12 0  0.92 0.12 0  0.9399999999999999 0.12 0  0.96 0.12 0  0.98 0.12 0  1 0.12 0  1.02 0.12 0  1.04 0.12 0  1.06 0.12 0  1.08 0.12 0  1.1 0.12 0  1.12 0.12 0  1.14 0.12 0  1.16 0.12 0  1.18 0.12 0  1.2 0.12 0  1.22 0.12 0  1.24 0.12 0  1.26 0.12 0  1.28 0.12 0  1.3 0.12 0  1.32 0.12 0  1.34 0.12 0  1.36 0.12 0  1.38 0.12 0  1.4 0.12 0  1.42 0.12 0  1.44 0.12 0  1.46 0.12 0  1.48 0.12 0  1.5 0.12 0  1.52 0.12 0  1.54 0.12 0  1.56 0.12 0  1.58 0.12 0  1.6 0.12 0  1.62 0.12 0  1.64 0.12 0  1.66 0.12 0  1.68 0.12 0  1.7 0.12 0  1.72 0.12 0  1.74 0.12 0  1.76 0.12 0  1.78 0.12 0  1.8 0.12 0  1.82 0.12 0  1.84 0.12 0  1.86 0.12 0  1.88 0.12 0  1.9 0.12 0  1.92 0.12 0  1.94 0.12 0  1.96 0.12 0  1.98 0.12 0  2 0.12 0  0 0.14 0  0.02 0.14 0  0.04 0.14 0  0.06 0.14 0  0.08 0.14 0  0.1 0.14 0  0.12 0.14 0  0.14 0.14 0  0.16 0.14 0  0.18 0.14 0  0.2 0.14 0  0.22 0.14 0  0.24 0.14 0  0.26 0.14 0  0.28 0.14 0  0.3 0.14 0  0.32 0.14 0  0.34 0.14 0  0.36 0.14 0  0.38 0.14 0  0.4 0.14 0  0.42 0.14 0  0.44 0.14 0  0.46 0.14 0  0.48 0.14 0  0.5 0.14 0  0.52 0.14 0  0.54 0.14 0  0.5600000000000001 0.14 0  0.58 0.14 0  0.6 0.14 0  0.62 0.14 0  0.64 0.14 0  0.66 0.14 0  0.68 0.14 0  0.7 0.14 0  0.72 0.14 0  0.74 0.14 0  0.76 0.14 0  0.78 0.14 0  0.8 0.14 0  0.82 0.14 0  0.84 0.14 0  0.86 0.14 0  0.88 0.14 0  0.9 0.14 0  0.92 0.14 0  0.9399999999999999 0.14 0  0.96 0.14 0  0.98 0.14 0  1 0.14 0  1.02 0.14 0  1.04 0.14 0  1.06 0.14 0  1.08 0.14 0  1.1 0.14 0  1.12 0.14 0  1.14 0.14 0  1.16 0.14 0  1.18 0.14 0  1.2 0.14 0  1.22 0.14 0  1.24 0.14 0  1.26 0.14 0  1.28 0.14 0  1.3 0.14 0  1.32 0.14 0  1.34 0.14 0  1.36 0.14 0  1.38 0.14 0  1.4 0.14 0  1.42 0.14 0  1.44 0.14 0  1.46 0.14 0  1.48 0.14 0  1
[...]
<CellData  Scalars="f_1069880"> 
<DataArray  type="Float64"  Name="f_1069880"  format="ascii">1.7555849183880141e+03   1.7549195334543747e+03   2.8511502283392874e+03   1.0468546531589029e+03   2.7496521583453255e+03   1.1686777295487370e+03   1.5078217371087367e+03   3.9567215563400023e+03   2.3839452622614726e+03   7.5854696634742368e+03   6.8724657871735390e+03   1.2198506279916808e+04   1.3108273519936374e+04   1.7949182589111257e+04   2.0923849617884742e+04   2.4924017200266295e+04   3.0244219229278275e+04   3.3151634081798424e+04   4.1001186740829697e+04   4.2622028517632250e+04   5.3123475498769709e+04   5.3299619863963693e+04   6.6531323293449081e+04   6.5129178700910292e+04   8.1131315772001777e+04   7.8037059863547882e+04   9.6811694883304706e+04   9.1930002293779457e+04   1.1343874937559584e+05   1.0669305845797618e+05   1.3085470380040942e+05   1.2218762294262697e+05   1.4887711225553905e+05   1.3825003477906610e+05   1.6729913628662995e+05   1.5469072805124524e+05   1.8588923373408357e+05   1.7129333228687587e+05   2.0438772521218270e+05   1.8781243169143240e+05   2.2249671462899327e+05   2.0396796978450866e+05   2.3985948838333815e+05   2.1943367474787228e+05   2.5602761225870170e+05   2.3381744262213842e+05   2.7041865301200293e+05   2.4663402608328519e+05   2.8226948775046552e+05   2.5727142217148023e+05   2.9061234784484934e+05   2.6496725443994231e+05   2.9429495246513496e+05   2.6881089907886495e+05   2.9202255235007952e+05   2.6776163694248314e+05   2.8250622467456292e+05   2.6073258637861977e+05   2.6516478401038388e+05   2.4701867850951559e+05   2.4006609721522214e+05   2.2648065250348669e+05   2.0786071619757439e+05   1.9952476805171240e+05   1.6948870422073553e+05   1.6714277734511203e+05   1.2591695427875964e+05   1.3111332071740431e+05   8.0358166441558002e+04   9.5580211641739719e+04   5.2062277926267001e+04   7.3618422026424727e+04   8.2506507615021445e+04   8.7353383200105673e+04   1.4280842147271262e+05   1.3026304214244662e+05   2.0967151881533174e+05   1.8410283349423215e+05   2.7682578111893637e+05   2.4083596709719973e+05   3.4131325722335814e+05   2.9688971000008500e+05   4.0141320456071978e+05   3.5024289762916527e+05   4.5604766374615155e+05   3.9958884159377887e+05   5.0452505718248204e+05   4.4405766012073774e+05   5.4647571622052009e+05   4.8312561776013643e+05   5.8179671984756424e+05   5.1654761671380571e+05   6.1058301676418085e+05   5.4428743079725688e+05   6.3308074478855566e+05   5.6646751719284337e+05   6.4964263894654275e+05   5.8332681981979171e+05   6.6068303423955082e+05   5.9517900314244034e+05   6.6665001688668702e+05   6.0238256897299294e+05   6.6800879422101099e+05   6.0532246327284793e+05   6.6522520808159350e+05   6.0439399943464494e+05   6.5875187394666963e+05   5.9998874795944069e+05   6.4901867975668667e+05   5.9248460854951688e+05   6.3642526116706443e+05   5.8223842075317132e+05   6.2133587130856223e+05   5.6958047073020763e+05   6.0407727582124271e+05   5.5481156592705951e+05   5.8493850188954535e+05   5.3820203160386614e+05   5.6417191351933964e+05   5.1999191056276212e+05   5.4199550252810714e+05   5.0039227586281905e+05   5.1859597198143712e+05   4.7958738732224668e+05   4.9413245344462025e+05   4.5773744625071622e+05   4.6874076696098340e+05   4.3498187266431353e+05   4.4253808141038218e+05   4.1144297804733389e+05   4.1562802372209536e+05   3.8722999650170666e+05   3.8810622652657918e+05   3.6244348124636902e+05   3.6006625849161216e+05   3.3718000475711684e+05   3.3160591516681260e+05   3.1153712095300580e+05   3.0283375404458272e+05   2.8561851894996711e+05   2.7387557339087909e+05   2.5953916601572820e+05   2.4488047436309941e+05   2.3343015068421248e+05   2.1602605859644985e+05   2.0744289144179731e+05   1.8752225990362704e+05   1.8175230842761771e+05   1.5961343460102341e+05   1.5655858360912726e+05   1.3257870583406906e+05   1.3208731351536498e+05   1.0673157007862408e+05   1.0858829417244771e+05   8.2422774376476737e+04   8.6334338357633082e+04   6.0060841654100754e+04   6.5624977500749505e+04   4.0208164701856222e+04   4.6812091261049463e+04   2.4044189063771228e+04   3.0418860024209476e+04   1.5437890237670912e+04   1.7728281169735365e+04   1.8801110082300173e+04   1.2883457482525806e+04   2.6588850483789403e+04   1.7410030381599150e+04   3.3515213105769923e+04   2.3972687655213493e+04   3.8421342867269537e+04   2.9389906243017664e+04   4.1119006503570927e+04   3.3027784420101394e+04   4.1702934224040328e+04   3.4826941780591871e+04   4.0395160707537849e+04   3.4912261590524104e+04   3.7493123127496430e+04   3.3495868495684255e+04   3.3344320106994877e+04   3.0840748256350376e+04   2.8329628144368071e+04   2.7240476901884533e+04   2.2850026558503243e+04   2.3003969445843886e+04   1.7314516277770035e+04   1.8441759845984252e+04   1.2127222224713312e+04   1.3852553925176522e+04   7.6697678189258831e+03   9.5102418187064213e+03   4.2666606068579731e+03   5.6547823592908353e+03   2.0823580478540462e+03   2.5036520233619490e+03   8.5680041378720500e+02   5.7429809201124669e+02   5.7209698961855952e+02   1.2100374345813266e+03   1.0305912738629004e+03   2.8260486921317220e+03   5.7482279968037392e+02   6.1442318498751445e+02   2.2706291756418827e+03   3.6619111655097181e+03   6.1322293749923310e+03   8.4160085049922091e+03   1.1085386343910694e+04   1.3915289342883279e+04   1.7039401538243248e+04   2.0039290370774113e+04   2.4000873686763534e+04   2.6796876331312251e+04   3.1998349923159516e+04   3.4247104086047133e+04   4.1052973902868456e+04   4.2455934643923443e+04   5.1167502202652497e+04   5.1474572227476368e+04   6.2322820596446152e+04   6.1330271385878295e+04   7.4476882596420197e+04   7.2023363000299491e+04   8.7564082003747841e+04   8.3526782071303736e+04   1.0149458553451461e+05   9.5786258086222646e+04   1.1615375677098335e+05   1.0872052210285944e+05   1.3140190732557469e+05   1.2222152826583886e+05   1.4707442955128470e+05   1.3615493912878356e+05   1.6298200686660749e+05   1.5036110307475313e+05   1.7891012869907901e+05   1.6465653158697835e+05   1.9461654158226444e+05   1.7883539651107733e+05   2.0982475626883138e+05   1.9266991927108431e+05   2.2421140860807977e+05   2.0590750244267937e+05   2.3738718564554787e+05   2.1826256001493349e+05   2.4887493526814252e+05   2.2940178385664267e+05   2.5808541484353639e+05   2.3891563127751354e+05   2.6432275572289247e+05   2.4630102349880419e+05   2.6682318113403860e+05   2.5096318083236823e+05   2.6476191400141810e+05   2.5217279340033291e+05   2.5733547401782597e+05   2.4905985303958811e+05   2.4463526000921350e+05   2.4115590308325292e+05   2.2721277481318556e+05   2.2882382543442148e+05   2.0642646991535195e+05   2.1300595990344457e+05   1.8467447842306536e+05   1.9580029173574707e+05   1.6574554478817215e+05   1.8098190479045935e+05   1.5547641956499408e+05   1.7263729423717994e+05   1.5995681239037568e+05   1.7450469072617401e+05   1.8100881906451297e+05   1.8822908864505953e+05   2.1485713775975016e+05   2.1210859591930456e+05   2.5587479993710364e+05   2.4248796067557178e+05   2.9976270912252174e+05   2.7630373200700560e+05   3.4391455110212724e+05   3.1161640532875911e+05   3.8666693208766263e+05   3.4701891566280322e+05   4.2673418248613668e+05   3.8121897884271754e+05   4.6313403347774612e+05   4.1309964613185794e+05   4.9525146101837966e+05   4.4187430304333399e+05   5.2275502905418066e+05   4.6705501692780532e+05   5.4550840012258897e+05   4.8836618529924977e+05   5.6353918035082868e+05   5.0570455823701149e+05   5.7699319840600982e+05   5.1910232179023250e+05   5.8608881031447300e+05   5.2867896321772342e+05   5.9109765597393236e+05   5.3461329437894281e+05   5.9232945913048717e+05   5.3713199589154776e+05   5.9011153524597967e+05   5.3649307882309880e+05   5.8477437138025835e+05   5.3296813104030304e+05   5.7664253047565650e+05   5.2683184728855407e+05   5.6602609073806542e+05   5.1835418278947758e+05   5.5321485759494046e+05   5.0779302145112929e+05   5.3847571635488467e+05   4.9539013643903227e+05   5.2205110604313854e+05   4.8136935599844030e+05   5.0415870501396421e+05   4.6593527845142048e+05   4.8499239814873994e+05   4.4927311490769050e+05   4.6472392820960598e+05   4.3154949845688109e+05   4.4350522856697999e+05   4.1291375486779050e+05   4.2147132512870547e+05   3.9349974019235419e+05   3.9874358951535000e+05   3.7342805181437870e+05   3.7543343247500696e+05   3.5280847585431568e+05   3.5164633972965699e+05   3.3174279188825225e+05   3.2748615086676186e+05   3.1032778682171041e+05   3.0305957120138773e+05   2.8865843112507177e+05   2.7848080670896336e+05   2.6683127160150110e+05   2.5387606113861216e+05   2.4494792747519098e+05   2.2938768787671387e+05   2.2311845583310616e+05   2.0517775085682169e+05   2.0146448588414610e+05   1.8143077610320444e+05   1.8012195040896942e+05   1.5835568865357165e+05   1.5924327847028009e+05   1.3618727375059485e+05   1.3899916948027341e+05   1.1518810837994947e+05   1.1958036590980338e+05   9.5652915349517294e+04   1.0120037770210749e+05   7.7918832998811165e+04   8.4100879638119848e+04   6.2385982642094583e+04   6.8562861991472339e+04   4.9545643146061120e+04   5.4927652047984142e+04   3.9970711209021574e+04   4.3626756785077952e+04   3.4110810301229933e+04   3.5182719027677645e+04   3.1772908279166801e+04   3.0036612977655095e+04   3.1848500157274262e+04   2.8069309448251202e+04   3.2911928265244620e+04   2.8313685498532242e+04   3.3904541089041275e+04   2.9483107902173386e+04   3.4258055844736518e+04   3.0608428594707882e+04   3.3749133834227243e+04   3.1156918281304774e+04   3.2357324550005520e+04   3.0900456691630927e+04   3.0174707071830173e+04   2.9787557996005897e+04   2.7350766453388023e+04   2.7863913856178126e+04   2.4055981661070080e+04   2.5226752294655118e+04   2.0455894649252434e+04   2.1998908834043326e+04   1.6694330162154871e+04   1.8316146290175464e+04   1.2890255533309337e+04   1.4326789352930457e+04   9.1568683060818166e+03   1.0206343278767828e+04   5.6472916040796699e+03   6.1919158917743607e+03   2.5965548921783479e+03   2.6462949217369005e+03   8.2883319310491402e+02   6.6596056587757391e+02   1.2015403821838784e+03   2.6447629067328594e+03   3.7008795351482304e+03   2.3198867541789250e+03   7.6098015695911399e+03   7.5169764910435015e+03   1.2966322448350076e+04   1.3565319368416016e+04   1.9395367194993476e+04   2.0331432364405733e+04   2.6655040327657720e+04   2.7643383880379886e+04   3.4637994716883317e+04   3.5411157664626066e+04   4.3312105684555085e+04   4.3614213858493895e+04   5.2677658803633378e+04   5.2270120258694827e+04   6.2740980914467640e+04   6.1409360698229641e+04   7.3499048758289791e+04   7.1058614062021661e+04   8.4930861416155560e+04   8.1230554343173077e+04   9.6992844166525319e+04   9.1917998811762722e+04   1.0961668086260336e+05   1.0309079993693426e+05   1.2270874103250912e+05   1.1469452261956695e+05   1.3615072078535141e+05   1.2665050677571826e+05   1.4980130479973520e+05   1.3885732686898694e+05   1.6349865463348271e+05   1.5119388951069731e+05   1.7706341739523795e+05   1.6352444083868229e+05   1.9030159690867775e+05   1.7570530761652868e+05   2.0300628439810371e+05   1.8759262928939451e+05   2.1495640389406114e+05   1.9904892002096851e+05   2.2591232317181997e+05   2.0994792619809182e+05   2.3561026400491488e+05   2.2017596375237190e+05   2.4374180431501305e+05   2.2959998766116641e+05   2.4997917223827043e+05   2.3805551439291815e+05   2.5401820395811772e+05   2.4534597794257640e+05   2.5542457083297236e+05   2.5107125748310550e+05   2.5352196278594778e+05   2.5444200375199725e+05   2.4916473448842345e+05   2.5493968759244453e+05   2.4335949577063735e+05   2.5325488847666272e+05   2.3778400706459698e+05   2.5009547118733381e+05   2.3469914630026589e+05   2.4747715136931202e+05   2.3628657598098603e+05   2.4942396008257655e+05   2.4408475012370202e+05   2.5702348148096979e+05   2.5851149087073645e+05   2.6979435056516895e+05   2.7872573024120799e+05   2.8669736914060230e+05   3.0273610359404952e+05   3.0567109943395643e+05   3.2808821354677866e+05   3.2418283687823283e+05   3.5333533655728435e+05   3.4153366437342187e+05   3.7818807236127259e+05   3.5847840988170652e+05   4.0257187896738516e+05   3.7563885403292289e+05   4.2598249567719456e+05   3.9277713704975042e+05   4.4773379231193772e+05   4.0928835791090719e+05   4.6733738594859425e+05   4.2470865637810482e+05   4.8444608324680914e+05   4.3866315463584912e+05   4.9879128458315239e+05   4.5081131924595265e+05   5.1023019526172528e+05   4.6090717953037616e+05   5.1871763878338551e+05   4.6880019847157656e+05   5.2426413038581959e+05   4.7439815551640443e+05   5.2694250461326586e+05   4.7766445449408720e+05   5.2688527704605437e+05   4.7862928588211385e+05   5.2426009115400870e+05   4.7737675277073437e+05   5.1925546350877167e+05   4.7402435019144655e+05   5.1207375686321018e+05   4.6871411173920811e+05   5.0292068950877344e+05   4.6160489228169748e+05   4.9199810590206535e+05   4.5286179106803681e+05   4.7950105306730332e+05   4.4265045000920858e+05   4.6561480774749961e+05   4.3113429323638469e+05   4.5051282188075938e+05   4.1847093220061413e+05   4.3435620746286545e+05   4.0480987789917510e+05   4.1729365829290182e+05   3.9029160704181652e+05   3.9946205631469726e+05   3.7504674789110321e+05   3.8098766440668685e+05   3.5919597524900053e+05   3.6198747479926021e+05   3.4285028230726003e+05   3.4257094671332225e+05   3.2611119719473971e+05   3.2284193391507742e+05   3.0907141992202564e+05   3.0290059947930259e+05   2.9181551431266672e+05   2.8284537770069396e+05   2.7442055671189912e+05   2.6277492386833834e+05   2.5695706882200425e+05   2.4278976487334448e+05   2.3949028718751358e+05   2.2299357296335217e+05   2.2208149276599262e+05   2.0349398812027281e+05   2.0478968964421240e+05   1.8440292025789263e+05   1.8767372204432264e+05   1.6583647203008595e+05   1.7079481194875142e+05   1.4791478635277634e+05   1.5421983789530848e+05   1.3076220268258861e+05   1.3802565632056067e+05   1.1450804932183518e+05   1.2230475964950561e+05   9.9288307213460183e+04   1.0717188797441706e+05   8.5248243227327839e+04   9.2770899989623795e+04   7.2545662698759625e+04   7.9281235235646629e+04   6.1353135046698771e+04   6.6924217758640254e+04   5.1854113483982808e+04   5.5968890621088191e+04   4.4221040552573359e+04   4.6730880362520351e+04   3.8557524796268888e+04   3.9539881917101578e+04   3.4802755876076764e+04   3.4628008069891439e+04   3.2655590285799008e+04   3.1929954072131237e+04   3.1611884304174266e+04   3.0957739300148973e+04   3.1111380399193848e+04   3.0952388505043182e+04   3.0675862486114274e+04   3.1181119359393786e+04   2.9963295033420531e+04   3.1107779452752093e+04   2.8758273551137310e+04   3.0404195952955237e+04   2.6942958751165719e+04   2.8902052108195359e+04   2.4473509401859443e+04   2.6547450261236398e+04   2.1370164964049287e+04   2.3374136439829228e+04   1.7721746074600094e+04   1.9494849452275070e+04   1.3699900561248549e+04   1.5107001318846054e+04   9.5625091076741392e+03   1.0505557813063806e+04   5.5775215990662782e+03   6.0853315484152026e+03   1.9382585830787255e+03   2.3883535976041489e+03   4.0143269165059842e+03   1.3201940523811106e+03   8.4773826596603467e+03   6.1515441951660514e+03   1.3712830018427665e+04   1.2712014881922934e+04   2.0117262197515553e+04   1.9717191977498664e+04   2.7536860636039331e+04   2.7313488616089900e+04   3.5740355448852075e+04   3.5419674805659597e+04   4.4566279437346362e+04   4.3932995157362937e+04   5.3924795804892026e+04   5.2787548153285396e+04   6.3771106836091341e+04   6.1953702797801918e+04   7.4080994534899786e+04   7.1423351341489164e+04   8.4833158446211412e+04   8.1195428310419462e+04   9.5997509359243064e+04   9.1265001730621763e+04   1.0752790803478626e+05   1.0161597397271050e+05   1.1935819557397312e+05   1.1221674750434591e+05   1.3140087001602727e+05   1.2301833581994854e+05   1.4354819180556125e+05   1.3395477109296882e+05   1.5567574746151824e+05   1.4494605467698508e+05   1.6764855822669409e+05   1.5590417328701963e+05   1.7932978653258228e+05   1.6674276372905602e+05   1.9059166759161188e+05   1.7739013510896362e+05   2.0132811282537901e+05   1.8780476374392572e+05   2.1146700933966701e+05   1.9799016018792268e+05   2.2098435467694895e+05   2.0801321030791121e+05   2.2991940689669305e+05   2.1803047766092871e+05   2.3833375529995019e+05   2.2824595512595956e+05   2.4634994139154302e+05   2.3891589182737851e+05   2.5418989475456291e+05   2.5032330305397080e+05   2.6163865871618080e+05   2.6233877748690225e+05   2.6745177644582826e+05   2.7397228169948648e+05   2.7323143655512453e+05   2.8416976874403405e+05   2.7969372182782745e+05   2.9372999205822259e+05   2.8797907706289052e+05   3.0192552065418276e+05   2.9945415020231932e+05   3.1045094212478376e+05   3.1464639905176748e+05   3.2502818869773799e+05   3.3258866676264274e+05   3.4372228082361846e+05   3.5211938212339766e+05   3.6374747198969097e+05   3.7227533432378067e+05   3.8363021050003101e+05   3.9133224732202565e+05   4.0075493256825971e+05   4.0700440539586800e+05   4.1174094168008654e+05   4.1887484719084587e+05   4.1707290387210931e+05   4.2835358727370185e+05   4.1966176461079897e+05   4.3682269146996393e+05   4.2163971635895921e+05   4.4457377657504636e+05   4.2332161786951532e+05   4.5146565223544132e+05   4.2459749972918932e+05   4.5757967763250513e+05   4.2578374687031202e+05   4.6291525365401845e+05   4.2706387444090692e+05   4.6730453966681135e+05   4.2834664745671855e+05   4.7060937447527301e+05   4.2948975255452748e+05   4.7269856328335812e+05   4.3031397461126954e+05   4.7341478315159481e+05   4.3057843344247353e+05   4.7264777312002558e+05   4.3004670345327508e+05   4.7035754665750987e+05   4.2854807962484687e+05   4.6654342113404244e+05   4.2597451383927610e+05   4.6123757659539301e+05   4.2226203620744072e+05   4.5450604888444539e+05   4.1739230849121517e+05   4.4643565111643035e+05   4.1138905492149800e+05   4.3712594338139729e+05   4.0430272193332511e+05   4.2668741494956124e+05   3.9620354217337357e+05   4.1523670950175769e+05   3.8717888791636820e+05   4.0289243993378029e+05   3.7732600923523487e+05   3.8977308632323489e+05   3.6674674381867459e+05   3.7599472737212945e+05   3.5554464887427184e+05   3.6166946960161295e+05   3.4382120368375862e+05   3.4690449132429709e+05   3.3167322379922704e+05   3.3180086823811295e+05   3.1919083919812943e+05   3.1645275240089337e+05   3.0645474992727739e+05   3.0094658099508571e+05   2.9353440337119950e+05   2.8535998687775008e+05   2.8048613621900475e+05   2.6976070232344349e+05   2.6735105658244964e+05   2.5420564843018516e+05   2.5415370997947501e+05   2.3874005354739164e+05   2.4090197076853126e+05   2.2339691460515256e+05   2.2758755471544177e+05   2.0819725726690301e+05   2.1418826689343184e+05   1.9315157437510788e+05   2.0067233770541460e+05   1.7826298566561277e+05   1.8700465205733053e+05   1.6353266014004537e+05   1.7315537051213603e+05   1.4896766552602418e+05   1.5911104558173704e+05   1.3459076022150629e+05   1.4488819506840879e+05   1.2045089015763105e+05   1.3054728527665362e+05   1.0663290936485377e+05   1.1620428307809855e+05   9.3265359428369105e+04   1.0203712876051367e+05   8.0526283362271293e+04   8.8287745969099589e+04   6.8648000444084551e+04   7.5262749958806031e+04   5.7921032295306337e+04   6.3335502557082342e+04   4.8691867932386318e+04   5.2945994616548007e+04   4.1333228762571067e+04   4.4575973067159372e+04   3.6141325637938367e+04   3.8640824034474637e+04   3.3138402209372143e+04   3.5248325606307895e+04   3.1914374530313402e+04   3.3969154288919912e+04   3.1730201859142398e+04   3.3938733612867953e+04   3.1815120235975366e+04   3.4240201579353576e+04   3.1576444455245062e+04   3.4178139207170745e+04   3.0643140489914618e+04   3.3327367973714041e+04   2.8832991412191896e+04   3.1482735776202884e+04   2.6114044316215812e+04   2.8604432209222272e+04   2.2579219609542990e+04   2.4783323707579577e+04   1.8424856397472220e+04   2.0221746107818319e+04   1.3901134206676350e+04   1.5214826782090575e+04   9.1660