<?xml version="1.0"?>
<VTKFile type="UnstructuredGrid"  version="0.1"  >
<UnstructuredGrid>
<Piece  NumberOfPoints="5151" NumberOfCells="10000">
<Points>
<DataArray  type="Float64"  NumberOfComponents="3"  format="ascii">0 0 0  0.02 0 0  0.04 0 0  0.06 0 0  0.08 0 0  0.1 0 0  0.12 0 0  0.14 0 0  0.16 0 0  0.18 0 0  0.2 0 0  0.22 0 0  0.24 0 0  0.26 0 0  0.28 0 0  0.3 0 0  0.32 0 0  0.34 0 0  0.36 0 0  0.38 0 0  0.4 0 0  0.42 0 0  0.44 0 0  0.46 0 0  0.48 0 0  0.5 0 0  0.52 0 0  0.54 0 0  0.5600000000000001 0 0  0.58 0 0  0.6 0 0  0.62 0 0  0.64 0 0  0.66 0 0  0.68 0 0  0.7 0 0  0.72 0 0  0.74 0 0  0.76 0 0  0.78 0 0  0.8 0 0  0.82 0 0  0.84 0 0  0.86 0 0  0.88 0 0  0.9 0 0  0.92 0 0  0.9399999999999999 0 0  0.96 0 0  0.98 0 0  1 0 0  1.02 0 0  1.04 0 0  1.06 0 0  1.08 0 0  1.1 0 0  1.12 0 0  1.14 0 0  1.16 0 0  1.18 0 0  1.2 0 0  1.22 0 0  1.24 0 0  1.26 0 0  1.28 0 0  1.3 0 0  1.32 0 0  1.34 0 0  1.36 0 0  1.38 0 0  1.4 0 0  1.42 0 0  1.44 0 0  1.46 0 0  1.48 0 0  1.5 0 0  1.52 0 0  1.54 0 0  1.56 0 0  1.58 0 0  1.6 0 0  1.62 0 0  1.64 0 0  1.66 0 0  1.68 0 0  1.7 0 0  1.72 0 0  1.74 0 0  1.76 0 0  1.78 0 0  1.8 0 0  1.82 0 0  1.84 0 0  1.86 0 0  1.88 0 0  1.9 0 0  1.92 0 0  1.94 0 0  1.96 0 0  1.98 0 0  2 0 0  0 0.02 0  0.02 0.02 0  0.04 0.02 0  0.06 0.02 0  0.08 0.02 0  0.1 0.02 0  0.12 0.02 0  0.14 0.02 0  0.16 0.02 0  0.18 0.02 0  0.2 0.02 0  0.22 0.02 0  0.24 0.02 0  0.26 0.02 0  0.28 0.02 0  0.3 0.02 0  0.32 0.02 0  0.34 0.02 0  0.36 0.02 0  0.38 0.02 0  0.4 0.02 0  0.42 0.02 0  0.44 0.02 0  0.46 0.02 0  0.48 0.02 0  0.5 0.02 0  0.52 0.02 0  0.54 0.02 0  0.5600000000000001 0.02 0  0.58 0.02 0  0.6 0.02 0  0.62 0.02 0  0.64 0.02 0  0.66 0.02 0  0.68 0.02 0  0.7 0.02 0  0.72 0.02 0  0.74 0.02 0  0.76 0.02 0  0.78 0.02 0  0.8 0.02 0  0.82 0.02 0  0.84 0.02 0  0.86 0.02 0  0.88 0.02 0  0.9 0.02 0  0.92 0.02 0  0.9399999999999999 0.02 0  0.96 0.02 0  0.98 0.02 0  1 0.02 0  1.02 0.02 0  1.04 0.02 0  1.06 0.02 0  1.08 0.02 0  1.1 0.02 0  1.12 0.02 0  1.14 0.02 0  1.16 0.02 0  1.18 0.02 0  1.2 0.02 0  1.22 0.02 0  1.24 0.02 0  1.26 0.02 0  1.28 0.02 0  1.3 0.02 0  1.32 0.02 0  1.34 0.02 0  1.36 0.02 0  1.38 0.02 0  1.4 0.02 0  1.42 0.02 0  1.44 0.02 0  1.46 0.02 0  1.48 0.02 0  1.5 0.02 0  1.52 0.02 0  1.54 0.02 0  1.56 0.02 0  1.58 0.02 0  1.6 0.02 0  1.62 0.02 0  1.64 0.02 0  1.66 0.02 0  1.68 0.02 0  1.7 0.02 0  1.72 0.02 0  1.74 0.02 0  1.76 0.02 0  1.78 0.02 0  1.8 0.02 0  1.82 0.02 0  1.84 0.02 0  1.86 0.02 0  1.88 0.02 0  1.9 0.02 0  1.92 0.02 0  1.94 0.02 0  1.96 0.02 0  1.98 0.02 0  2 0.02 0  0 0.04 0  0.02 0.04 0  0.04 0.04 0  0.06 0.04 0  0.08 0.04 0  0.1 0.04 0  0.12 0.04 0  0.14 0.04 0  0.16 0.04 0  0.18 0.04 0  0.2 0.04 0  0.22 0.04 0  0.24 0.04 0  0.26 0.04 0  0.28 0.04 0  0.3 0.04 0  0.32 0.04 0  0.34 0.04 0  0.36 0.04 0  0.38 0.04 0  0.4 0.04 0  0.42 0.04 0  0.44 0.04 0  0.46 0.04 0  0.48 0.04 0  0.5 0.04 0  0.52 0.04 0  0.54 0.04 0  0.5600000000000001 0.04 0  0.58 0.04 0  0.6 0.04 0  0.62 0.04 0  0.64 0.04 0  0.66 0.04 0  0.68 0.04 0  0.7 0.04 0  0.72 0.04 0  0.74 0.04 0  0.76 0.04 0  0.78 0.04 0  0.8 0.04 0  0.82 0.04 0  0.84 0.04 0  0.86 0.04 0  0.88 0.04 0  0.9 0.04 0  0.92 0.04 0  0.9399999999999999 0.04 0  0.96 0.04 0  0.98 0.04 0  1 0.04 0  1.02 0.04 0  1.04 0.04 0  1.06 0.04 0  1.08 0.04 0  1.1 0.04 0  1.12 0.04 0  1.14 0.04 0  1.16 0.04 0  1.18 0.04 0  1.2 0.04 0  1.22 0.04 0  1.24 0.04 0  1.26 0.04 0  1.28 0.04 0  1.3 0.04 0  1.32 0.04 0  1.34 0.04 0  1.36 0.04 0  1.38 0.04 0  1.4 0.04 0  1.42 0.04 0  1.44 0.04 0  1.46 0.04 0  1.48 0.04 0  1.5 0.04 0  1.52 0.04 0  1.54 0.04 0  1.56 0.04 0  1.58 0.04 0  1.6 0.04 0  1.62 0.04 0  1.64 0.04 0  1.66 0.04 0  1.68 0.04 0  1.7 0.04 0  1.72 0.04 0  1.74 0.04 0  1.76 0.04 0  1.78 0.04 0  1.8 0.04 0  1.82 0.04 0  1.84 0.04 0  1.86 0.04 0  1.88 0.04 0  1.9 0.04 0  1.92 0.04 0  1.94 0.04 0  1.96 0.04 0  1.98 0.04 0  2 0.04 0  0 0.06 0  0.02 0.06 0  0.04 0.06 0  0.06 0.06 0  0.08 0.06 0  0.1 0.06 0  0.12 0.06 0  0.14 0.06 0  0.16 0.06 0  0.18 0.06 0  0.2 0.06 0  0.22 0.06 0  0.24 0.06 0  0.26 0.06 0  0.28 0.06 0  0.3 0.06 0  0.32 0.06 0  0.34 0.06 0  0.36 0.06 0  0.38 0.06 0  0.4 0.06 0  0.42 0.06 0  0.44 0.06 0  0.46 0.06 0  0.48 0.06 0  0.5 0.06 0  0.52 0.06 0  0.54 0.06 0  0.5600000000000001 0.06 0  0.58 0.06 0  0.6 0.06 0  0.62 0.06 0  0.64 0.06 0  0.66 0.06 0  0.68 0.06 0  0.7 0.06 0  0.72 0.06 0  0.74 0.06 0  0.76 0.06 0  0.78 0.06 0  0.8 0.06 0  0.82 0.06 0  0.84 0.06 0  0.86 0.06 0  0.88 0.06 0  0.9 0.06 0  0.92 0.06 0  0.9399999999999999 0.06 0  0.96 0.06 0  0.98 0.06 0  1 0.06 0  1.02 0.06 0  1.04 0.06 0  1.06 0.06 0  1.08 0.06 0  1.1 0.06 0  1.12 0.06 0  1.14 0.06 0  1.16 0.06 0  1.18 0.06 0  1.2 0.06 0  1.22 0.06 0  1.24 0.06 0  1.26 0.06 0  1.28 0.06 0  1.3 0.06 0  1.32 0.06 0  1.34 0.06 0  1.36 0.06 0  1.38 0.06 0  1.4 0.06 0  1.42 0.06 0  1.44 0.06 0  1.46 0.06 0  1.48 0.06 0  1.5 0.06 0  1.52 0.06 0  1.54 0.06 0  1.56 0.06 0  1.58 0.06 0  1.6 0.06 0  1.62 0.06 0  1.64 0.06 0  1.66 0.06 0  1.68 0.06 0  1.7 0.06 0  1.72 0.06 0  1.74 0.06 0  1.76 0.06 0  1.78 0.06 0  1.8 0.06 0  1.82 0.06 0  1.84 0.06 0  1.86 0.06 0  1.88 0.06 0  1.9 0.06 0  1.92 0.06 0  1.94 0.06 0  1.96 0.06 0  1.98 0.06 0  2 0.06 0  0 0.08 0  0.02 0.08 0  0.04 0.08 0  0.06 0.08 0  0.08 0.08 0  0.1 0.08 0  0.12 0.08 0  0.14 0.08 0  0.16 0.08 0  0.18 0.08 0  0.2 0.08 0  0.22 0.08 0  0.24 0.08 0  0.26 0.08 0  0.28 0.08 0  0.3 0.08 0  0.32 0.08 0  0.34 0.08 0  0.36 0.08 0  0.38 0.08 0  0.4 0.08 0  0.42 0.08 0  0.44 0.08 0  0.46 0.08 0  0.48 0.08 0  0.5 0.08 0  0.52 0.08 0  0.54 0.08 0  0.5600000000000001 0.08 0  0.58 0.08 0  0.6 0.08 0  0.62 0.08 0  0.64 0.08 0  0.66 0.08 0  0.68 0.08 0  0.7 0.08 0  0.72 0.08 0  0.74 0.08 0  0.76 0.08 0  0.78 0.08 0  0.8 0.08 0  0.82 0.08 0  0.84 0.08 0  0.86 0.08 0  0.88 0.08 0  0.9 0.08 0  0.92 0.08 0  0.9399999999999999 0.08 0  0.96 0.08 0  0.98 0.08 0  1 0.08 0  1.02 0.08 0  1.04 0.08 0  1.06 0.08 0  1.08 0.08 0  1.1 0.08 0  1.12 0.08 0  1.14 0.08 0  1.16 0.08 0  1.18 0.08 0  1.2 0.08 0  1.22 0.08 0  1.24 0.08 0  1.26 0.08 0  1.28 0.08 0  1.3 0.08 0  1.32 0.08 0  1.34 0.08 0  1.36 0.08 0  1.38 0.08 0  1.4 0.08 0  1.42 0.08 0  1.44 0.08 0  1.46 0.08 0  1.48 0.08 0  1.5 0.08 0  1.52 0.08 0  1.54 0.08 0  1.56 0.08 0  1.58 0.08 0  1.6 0.08 0  1.62 0.08 0  1.64 0.08 0  1.66 0.08 0  1.68 0.08 0  1.7 0.08 0  1.72 0.08 0  1.74 0.08 0  1.76 0.08 0  1.78 0.08 0  1.8 0.08 0  1.82 0.08 0  1.84 0.08 0  1.86 0.08 0  1.88 0.08 0  1.9 0.08 0  1.92 0.08 0  1.94 0.08 0  1.96 0.08 0  1.98 0.08 0  2 0.08 0  0 0.1 0  0.02 0.1 0  0.04 0.1 0  0.06 0.1 0  0.08 0.1 0  0.1 0.1 0  0.12 0.1 0  0.14 0.1 0  0.16 0.1 0  0.18 0.1 0  0.2 0.1 0  0.22 0.1 0  0.24 0.1 0  0.26 0.1 0  0.28 0.1 0  0.3 0.1 0  0.32 0.1 0  0.34 0.1 0  0.36 0.1 0  0.38 0.1 0  0.4 0.1 0  0.42 0.1 0  0.44 0.1 0  0.46 0.1 0  0.48 0.1 0  0.5 0.1 0  0.52 0.1 0  0.54 0.1 0  0.5600000000000001 0.1 0  0.58 0.1 0  0.6 0.1 0  0.62 0.1 0  0.64 0.1 0  0.66 0.1 0  0.68 0.1 0  0.7 0.1 0  0.72 0.1 0  0.74 0.1 0  0.76 0.1 0  0.78 0.1 0  0.8 0.1 0  0.82 0.1 0  0.84 0.1 0  0.86 0.1 0  0.88 0.1 0  0.9 0.1 0  0.92 0.1 0  0.9399999999999999 0.1 0  0.96 0.1 0  0.98 0.1 0  1 0.1 0  1.02 0.1 0  1.04 0.1 0  1.06 0.1 0  1.08 0.1 0  1.1 0.1 0  1.12 0.1 0  1.14 0.1 0  1.16 0.1 0  1.18 0.1 0  1.2 0.1 0  1.22 0.1 0  1.24 0.1 0  1.26 0.1 0  1.28 0.1 0  1.3 0.1 0  1.32 0.1 0  1.34 0.1 0  1.36 0.1 0  1.38 0.1 0  1.4 0.1 0  1.42 0.1 0  1.44 0.1 0  1.46 0.1 0  1.48 0.1 0  1.5 0.1 0  1.52 0.1 0  1.54 0.1 0  1.56 0.1 0  1.58 0.1 0  1.6 0.1 0  1.62 0.1 0  1.64 0.1 0  1.66 0.1 0  1.68 0.1 0  1.7 0.1 0  1.72 0.1 0  1.74 0.1 0  1.76 0.1 0  1.78 0.1 0  1.8 0.1 0  1.82 0.1 0  1.84 0.1 0  1.86 0.1 0  1.88 0.1 0  1.9 0.1 0  1.92 0.1 0  1.94 0.1 0  1.96 0.1 0  1.98 0.1 0  2 0.1 0  0 0.12 0  0.02 0.12 0  0.04 0.12 0  0.06 0.12 0  0.08 0.12 0  0.1 0.12 0  0.12 0.12 0  0.14 0.12 0  0.16 0.12 0  0.18 0.12 0  0.2 0.12 0  0.22 0.12 0  0.24 0.12 0  0.26 0.12 0  0.28 0.12 0  0.3 0.12 0  0.32 0.12 0  0.34 0.12 0  0.36 0.12 0  0.38 0.12 0  0.4 0.12 0  0.42 0.12 0  0.44 0.12 0  0.46 0.12 0  0.48 0.12 0  0.5 0.12 0  0.52 0.12 0  0.54 0.12 0  0.5600000000000001 0.12 0  0.58 0.12 0  0.6 0.12 0  0.62 0.12 0  0.64 0.12 0  0.66 0.12 0  0.68 0.12 0  0.7 0.12 0  0.72 0.12 0  0.74 0.12 0  0.76 0.12 0  0.78 0.12 0  0.8 0.12 0  0.82 0.12 0  0.84 0.12 0  0.86 0.12 0  0.88 0.12 0  0.9 0.12 0  0.92 0.12 0  0.9399999999999999 0.12 0  0.96 0.12 0  0.98 0.12 0  1 0.12 0  1.02 0.12 0  1.04 0.12 0  1.06 0.12 0  1.08 0.12 0  1.1 0.12 0  1.12 0.12 0  1.14 0.12 0  1.16 0.12 0  1.18 0.12 0  1.2 0.12 0  1.22 0.12 0  1.24 0.12 0  1.26 0.12 0  1.28 0.12 0  1.3 0.12 0  1.32 0.12 0  1.34 0.12 0  1.36 0.12 0  1.38 0.12 0  1.4 0.12 0  1.42 0.12 0  1.44 0.12 0  1.46 0.12 0  1.48 0.12 0  1.5 0.12 0  1.52 0.12 0  1.54 0.12 0  1.56 0.12 0  1.58 0.12 0  1.6 0.12 0  1.62 0.12 0  1.64 0.12 0  1.66 0.12 0  1.68 0.12 0  1.7 0.12 0  1.72 0.12 0  1.74 0.12 0  1.76 0.12 0  1.78 0.12 0  1.8 0.12 0  1.82 0.12 0  1.84 0.12 0  1.86 0.12 0  1.88 0.12 0  1.9 0.12 0  1.92 0.12 0  1.94 0.12 0  1.96 0.12 0  1.98 0.12 0  2 0.12 0  0 0.14 0  0.02 0.14 0  0.04 0.14 0  0.06 0.14 0  0.08 0.14 0  0.1 0.14 0  0.12 0.14 0  0.14 0.14 0  0.16 0.14 0  0.18 0.14 0  0.2 0.14 0  0.22 0.14 0  0.24 0.14 0  0.26 0.14 0  0.28 0.14 0  0.3 0.14 0  0.32 0.14 0  0.34 0.14 0  0.36 0.14 0  0.38 0.14 0  0.4 0.14 0  0.42 0.14 0  0.44 0.14 0  0.46 0.14 0  0.48 0.14 0  0.5 0.14 0  0.52 0.14 0  0.54 0.14 0  0.5600000000000001 0.14 0  0.58 0.14 0  0.6 0.14 0  0.62 0.14 0  0.64 0.14 0  0.66 0.14 0  0.68 0.14 0  0.7 0.14 0  0.72 0.14 0  0.74 0.14 0  0.76 0.14 0  0.78 0.14 0  0.8 0.14 0  0.82 0.14 0  0.84 0.14 0  0.86 0.14 0  0.88 0.14 0  0.9 0.14 0  0.92 0.14 0  0.9399999999999999 0.14 0  0.96 0.14 0  0.98 0.14 0  1 0.14 0  1.02 0.14 0  1.04 0.14 0  1.06 0.14 0  1.08 0.14 0  1.1 0.14 0  1.12 0.14 0  1.14 0.14 0  1.16 0.14 0  1.18 0.14 0  1.2 0.14 0  1.22 0.14 0  1.24 0.14 0  1.26 0.14 0  1.28 0.14 0  1.3 0.14 0  1.32 0.14 0  1.34 0.14 0  1.36 0.14 0  1.38 0.14 0  1.4 0.14 0  1.42 0.14 0  1.44 0.14 0  1.46 0.14 0  1.48 0.14 0  1
[...]
<CellData  Scalars="f_269127"> 
<DataArray  type="Float64"  Name="f_269127"  format="ascii">1.9525611495096635e+02   1.9536520044176061e+02   1.5656389606395152e+02   9.5162821241989121e+01   1.4338549790242286e+02   4.7822282910560244e+02   6.1406411266497298e+02   9.4421177222404526e+02   1.2866544087361590e+03   1.4759106704293090e+03   2.0990796197423911e+03   2.0630714857416001e+03   2.9794962942403322e+03   2.6757292191455176e+03   3.8446346038107599e+03   3.2646742356037385e+03   4.6037767315571855e+03   3.7676146483217130e+03   5.1619680874586156e+03   4.1159227245398788e+03   5.4228799541649150e+03   4.2421340381157752e+03   5.2921414644019651e+03   4.0923441783995713e+03   4.6833998733598191e+03   3.6582849211178509e+03   3.5389436742751136e+03   3.0880353109191424e+03   1.9875283154327044e+03   3.0049226067113509e+03   2.0666680901041291e+03   4.3213910540946154e+03   5.1419054334003140e+03   7.0040403564872740e+03   9.4437077048297651e+03   1.0735521702768203e+04   1.4753813669410392e+04   1.5407646488097285e+04   2.1068799852404187e+04   2.1001332168589077e+04   2.8401602861400374e+04   2.7520001746345471e+04   3.6759104882052059e+04   3.4968525141442806e+04   4.6137848091330859e+04   4.3346302482491010e+04   5.6523652477922085e+04   5.2645150421784776e+04   6.7892639755650584e+04   6.2849180190368643e+04   8.0213028037905882e+04   7.3935711304497614e+04   9.3447381583367838e+04   8.5876761357328767e+04   1.0755509468046750e+05   9.8640857043332362e+04   1.2249489874862085e+05   1.1219495570001591e+05   1.3822718456363564e+05   1.2650628984562676e+05   1.5471594288522174e+05   1.4154396268354650e+05   1.7193015338832486e+05   1.5728014515989044e+05   1.8984449489947723e+05   1.7369075869943562e+05   2.0843930683437624e+05   1.9075557209385585e+05   2.2769979575319515e+05   2.0845769197736614e+05   2.4761454408124552e+05   2.2678247803525068e+05   2.6817343190909643e+05   2.4571596008409400e+05   2.8936512218710571e+05   2.6524286930373195e+05   3.1117427841524436e+05   2.8534441552925803e+05   3.3357868837413396e+05   3.0599595747978432e+05   3.5654644350966404e+05   3.2716467479786830e+05   3.8003330806469574e+05   3.4880738118772703e+05   4.0398036765969032e+05   3.7086854272104136e+05   4.2831202432452107e+05   3.9327857313208876e+05   4.5293438111546612e+05   4.1595244803840120e+05   4.7773404536376829e+05   4.3878866756272042e+05   5.0257737138474733e+05   4.6166858752515173e+05   5.2731015988795005e+05   4.8445613348845922e+05   5.5175783292510384e+05   5.0699791036678303e+05   5.7572611153994268e+05   5.2912372447387816e+05   5.9900223781981599e+05   5.5064754485312896e+05   6.2135679831524042e+05   5.7136894330408273e+05   6.4254621129174659e+05   5.9107506050933187e+05   6.6231592675888992e+05   6.0954314157988795e+05   6.8040435318803380e+05   6.2654366546678124e+05   6.9654747504046815e+05   6.4184406153678591e+05   7.1048407289624831e+05   6.5521297032945207e+05   7.2196141630712326e+05   6.6642497225165262e+05   7.3074127977282985e+05   6.7526568488344760e+05   7.3660613587311679e+05   6.8153711850991705e+05   7.3936543622984632e+05   6.8506319980899885e+05   7.3886195909151982e+05   6.8569540730932436e+05   7.3497828284394916e+05   6.8331850675136712e+05   7.2764335901721334e+05   6.7785633131725481e+05   7.1683882428009203e+05   6.6927733529384772e+05   7.0260426508658461e+05   6.5759934461649193e+05   6.8504045356922876e+05   6.4289275166407297e+05   6.6430981640799297e+05   6.2528153047123423e+05   6.4063386480498931e+05   6.0494178500027838e+05   6.1428769764001691e+05   5.8209785429976042e+05   5.8559193807468517e+05   5.5701620609704440e+05   5.5490268299811298e+05   5.2999752444680838e+05   5.2260024378895795e+05   5.0136756634925201e+05   4.8907755258686922e+05   4.7146746871931531e+05   4.5472905011664965e+05   4.4064417999127920e+05   4.1994068939489016e+05   4.0924157874995086e+05   3.8508145996637159e+05   3.7759267538186378e+05   3.5049662894112192e+05   3.4601312597217702e+05   3.1650274522323254e+05   3.1479615451649076e+05   2.8338436586087290e+05   2.8420889016576810e+05   2.5139242198205550e+05   2.5449007287422239e+05   2.2074412351101753e+05   2.2584904843502172e+05   1.9162428858856935e+05   1.9846594704567906e+05   1.6418796704874872e+05   1.7249290832728712e+05   1.3856421238083014e+05   1.4805617613110729e+05   1.1486086340642766e+05   1.2525884087271785e+05   9.3170271335815371e+04   1.0418396058135587e+05   7.3576158316846995e+04   8.4897751657603760e+04   5.6162518179862578e+04   6.7452515677874006e+04   4.1027599434113647e+04   5.1888981218535228e+04   2.8312683923443870e+04   3.8237863952208609e+04   1.8276316240065462e+04   2.6520986072999825e+04   1.1474603010190342e+04   1.6754753734023787e+04   8.6489576387344259e+03   8.9740443685998125e+03   8.6872156405780734e+03   3.4720078290133224e+03   8.9040215587333605e+03   2.8023972840384904e+03   8.0463753279352350e+03   4.7839004840207472e+03   6.0878727859225610e+03   5.6488515853114577e+03   3.6973019614733657e+03   5.0813294698062937e+03   1.8094131225420372e+03   3.0665824100673472e+03   1.1068066702707914e+02   1.7145181397438932e+02   3.7315193401583639e+02   3.5645203275754824e+02   8.7170637279951472e+02   9.6758257991623270e+02   1.4818904144500725e+03   1.6148667481811572e+03   2.1277877800631677e+03   2.2314017884686432e+03   2.7591396669202181e+03   2.7747069729189525e+03   3.3320196221970509e+03   3.2177136147136985e+03   3.8026377827367751e+03   3.5418457213172687e+03   4.1280766540454542e+03   3.7366042252380248e+03   4.2732533689471229e+03   3.8075036653016973e+03   4.2282956890570103e+03   3.7971957636846269e+03   4.0499257627827697e+03   3.8254157289505997e+03   3.9500326532588406e+03   4.1264477766879336e+03   4.3729445014535095e+03   4.9876870902140809e+03   5.7560360747273771e+03   6.5815454567142615e+03   8.1851254675061573e+03   8.9346378149516513e+03   1.1571378839802852e+04   1.2029719237474248e+04   1.5853996409187188e+04   1.5859649860292764e+04   2.1013555592701876e+04   2.0430559620651522e+04   2.7048962797680881e+04   2.5754347993031799e+04   3.3963155505560288e+04   3.1842791299657147e+04   4.1756414997591237e+04   3.8704168063466102e+04   5.0423590871897912e+04   4.6341617481496265e+04   5.9953338231852264e+04   5.4752601224025697e+04   7.0328450183669687e+04   6.3929098638649433e+04   8.1526869241466848e+04   7.3858293241980355e+04   9.3523077353898145e+04   8.4523595681587132e+04   1.0628966969332795e+05   9.5905856506820928e+04   1.1979893499387325e+05   1.0798464042369404e+05   1.3402428309566239e+05   1.2073943292756539e+05   1.4894137726308068e+05   1.3415065535125544e+05   1.6452885368304545e+05   1.4820037736173120e+05   1.8076854510334085e+05   1.6287263979033317e+05   1.9764516851606639e+05   1.7815333516024722e+05   2.1514548344286534e+05   1.9402963428876703e+05   2.3325697209814188e+05   2.1048898964830668e+05   2.5196613003834561e+05   2.2751778371931214e+05   2.7125648222051060e+05   2.4509971892733086e+05   2.9110644973704580e+05   2.6321406180985540e+05   3.1148720365389367e+05   2.8183385516994953e+05   3.3236059060291207e+05   3.0092419897036708e+05   3.5367725491331436e+05   3.2044068511339003e+05   3.7537499408231711e+05   3.4032803729171661e+05   3.9737740572498942e+05   3.6051899691436335e+05   4.1959285428585741e+05   3.8093347659160901e+05   4.4191377903388714e+05   4.0147799459790683e+05   4.6421635731899337e+05   4.2204539567665925e+05   4.8636053206285316e+05   4.4251485586340481e+05   5.0819041221958492e+05   4.6275216488902352e+05   5.2953506151128793e+05   4.8261028339841543e+05   5.5020970341479522e+05   5.0193018558834732e+05   5.7001738295613311e+05   5.2054201688901824e+05   5.8875112861034821e+05   5.3826661072094145e+05   6.0619664425609773e+05   5.5491740906728781e+05   6.2213553337308718e+05   5.7030281701950415e+05   6.3634902266664512e+05   5.8422899663375865e+05   6.4862211873019557e+05   5.9650307742425683e+05   6.5874810617400752e+05   6.0693673466887069e+05   6.6653328329873446e+05   6.1535006610605237e+05   6.7180182474501862e+05   6.2157567607323988e+05   6.7440071164972661e+05   6.2546290135217027e+05   6.7420470419005817e+05   6.2688216191031260e+05   6.7112142037925788e+05   6.2572952165908110e+05   6.6509647330558673e+05   6.2193155050387734e+05   6.5611829591774638e+05   6.1545029736554634e+05   6.4422195215250994e+05   6.0628776299127378e+05   6.2949119067186757e+05   5.9448903982353490e+05   6.1205834814474161e+05   5.8014351885071851e+05   5.9210208816677670e+05   5.6338403991279495e+05   5.6984313912373141e+05   5.4438414310526720e+05   5.4553827588235878e+05   5.2335361866617732e+05   5.1947292773570964e+05   5.0053259430335427e+05   4.9195294059283059e+05   4.7618454667067289e+05   4.6329607877116551e+05   4.5058875531716290e+05   4.3382379907900310e+05   4.2403273060672585e+05   4.0385370705920784e+05   3.9680505116984888e+05   3.7369296431689669e+05   3.6918890534364729e+05   3.4363279247286794e+05   3.4145650012410048e+05   3.1394412764254899e+05   3.1386440632934315e+05   2.8487441813663510e+05   2.8664985162204009e+05   2.5664551714665495e+05   2.6002794311968432e+05   2.2945258965303408e+05   2.3418978395280227e+05   2.0346391775509308e+05   2.0930143150545369e+05   1.7882144458242634e+05   1.8550362173116254e+05   1.5564184162339490e+05   1.6291215308689777e+05   1.3401782061869779e+05   1.4161879128471264e+05   1.1401934650184549e+05   1.2169253411550142e+05   9.5694358230567537e+04   1.0318108211571786e+05   7.9068601925682946e+04   8.6112420241779095e+04   6.4144293895319948e+04   7.0496561046677016e+04   5.0897695762940260e+04   5.6327778358225805e+04   3.9276537280101504e+04   4.3588146153563139e+04   2.9199893697141211e+04   3.2254039938350314e+04   2.0565920926356255e+04   2.2308978662693615e+04   1.3277226393098543e+04   1.3771932980412230e+04   7.3060844064195962e+03   6.7912693332966028e+03   2.9546683396863732e+03   2.5358457775227967e+03   2.2763742579651866e+03   4.1192693968835092e+03   3.4791162879860385e+03   5.6745396978747658e+03   3.6887713806689903e+03   5.0641039654600017e+03   4.6186819866897559e+02   1.1303452495343888e+02   9.4235075840852483e+02   8.2992265580575304e+02   1.5559391943893270e+03   1.5938210895070938e+03   2.2380262064904791e+03   2.3505655286154783e+03   2.8902713076840832e+03   3.0349587054760359e+03   3.4403702412761900e+03   3.5856277824155745e+03   3.8421729542788589e+03   3.9639978612892091e+03   4.0744763248036070e+03   4.1591810132597366e+03   4.1495829464962826e+03   4.1979063865713961e+03   4.1383284817689864e+03   4.1684733789396632e+03   4.2136390951867097e+03   4.2564047992886317e+03   4.6663871433035938e+03   4.7385622056240763e+03   5.7823223511206525e+03   5.8520706178832206e+03   7.6760155099434005e+03   7.6689337580631109e+03   1.0330065132169542e+04   1.0155497970559531e+04   1.3707356831039750e+04   1.3268584350911278e+04   1.7788448426270948e+04   1.6983821269219035e+04   2.2568531816704141e+04   2.1292059926489521e+04   2.8049385650310687e+04   2.6192171835633901e+04   3.4233945688618682e+04   3.1686126167717299e+04   4.1123356099138640e+04   3.7776178906587091e+04   4.8715602775101826e+04   4.4463406956100072e+04   5.7005119667197796e+04   5.1747065937386389e+04   6.5983008886523341e+04   5.9624466343955748e+04   7.5637649613122150e+04   6.8091182614398364e+04   8.5955538765265024e+04   7.7141472083072251e+04   9.6922234635364934e+04   8.6768808374089174e+04   1.0852329471204076e+05   9.6966455445774613e+04   1.2074510771692927e+05   1.0772801012736809e+05   1.3357552809398645e+05   1.1904784204727421e+05   1.4700423171648907e+05   1.3092135862705845e+05   1.6102272932981190e+05   1.4334502846103878e+05   1.7562400045832951e+05   1.5631611235714133e+05   1.9080174382495732e+05   1.6983207786484898e+05   2.0654927576671905e+05   1.8388970661704874e+05   2.2285814064368090e+05   1.9848393824640536e+05   2.3971652213893540e+05   2.1360652465695271e+05   2.5710755930653866e+05   2.2924458982393178e+05   2.7500767404685204e+05   2.4537919938399841e+05   2.9338500654151436e+05   2.6198403636288308e+05   3.1219803093113052e+05   2.7902426080503024e+05   3.3139440790644102e+05   2.9645559806960897e+05   3.5091009004993003e+05   3.1422367240619491e+05   3.7066869957375055e+05   3.3226358993597038e+05   3.9058117989982601e+05   3.5049975923028158e+05   4.1054572282157902e+05   3.6884593959784840e+05   4.3044796594862104e+05   3.8720549778774352e+05   4.5016144828092580e+05   4.0547184263590479e+05   4.6954830996119039e+05   4.2352899981527834e+05   4.8846023072476318e+05   4.4125229382521694e+05   5.0673962094769743e+05   4.5850912713916949e+05   5.2422109968815977e+05   4.7515987890490174e+05   5.4073330071572587e+05   4.9105897011265327e+05   5.5610103303714877e+05   5.0605614592925558e+05   5.7014779242782854e+05   5.1999801067094720e+05   5.8269858677698881e+05   5.3272982746166771e+05   5.9358300978446333e+05   5.4409757185248227e+05   6.0263847856090171e+05   5.5395020878617570e+05   6.0971354261059151e+05   5.6214214491474442e+05   6.1467115062756476e+05   5.6853577118500567e+05   6.1739186549015087e+05   5.7300407205109170e+05   6.1777707669107232e+05   5.7543337436780753e+05   6.1575251494209177e+05   5.7572655396115012e+05   6.1127223761315446e+05   5.7380709830688173e+05   6.0432273385456251e+05   5.6962395520975720e+05   5.9492627437193913e+05   5.6315638153583452e+05   5.8314262555142818e+05   5.5441763961802353e+05   5.6906890563873155e+05   5.4345680879334989e+05   5.5283787098000303e+05   5.3035877419147850e+05   5.3461491556357977e+05   5.1524276656552590e+05   5.1459391042262164e+05   4.9825963251295668e+05   4.9299206874832540e+05   4.7958786754290410e+05   4.7004418358235038e+05   4.5942860418980673e+05   4.4599665093425958e+05   4.3799996076536149e+05   4.2110162925105647e+05   4.1553120860393357e+05   3.9561156641033635e+05   3.9225711445511453e+05   3.6977421576178994e+05   3.6841266282343370e+05   3.4382819111780793e+05   3.4422824068669957e+05   3.1799907536279404e+05   3.1992530141895125e+05   2.9249608514920250e+05   2.9571250906007265e+05   2.6750929144390766e+05   2.7178237812508002e+05   2.4320739291942946e+05   2.4830844740218960e+05   2.1973603166971653e+05   2.2544304478078210e+05   1.9721662866024082e+05   2.0331570625103667e+05   1.7574570633959508e+05   1.8203230623029516e+05   1.5539467056674499e+05   1.6167494752583723e+05   1.3621006195991902e+05   1.4230266194954596e+05   1.1821438039114872e+05   1.2395300550379770e+05   1.0140775663581782e+05   1.0664471264127133e+05   8.5771003185032008e+04   9.0381712098611635e+04   7.1270908459508646e+04   7.5158999165660396e+04   5.7868982404397480e+04   6.0971088456191144e+04   4.5535063204878556e+04   4.7824011057972828e+04   3.4266927215161835e+04   3.5752082129560920e+04   2.4115602567857528e+04   2.4841263202432070e+04   1.5211797590176335e+04   1.5264606640383809e+04   7.7777235754219682e+03   7.3715821561969442e+03   2.1112496617402994e+03   2.5626127001653999e+03   2.2806057410844182e+03   4.0731823608124423e+03   6.0614618815471049e+03   5.5941643791334518e+03   9.1010166211260571e+02   4.7967354373174265e+02   1.5685415731057426e+03   1.4324676477912074e+03   2.2689884108559290e+03   2.3437742145937605e+03   2.9850307532650099e+03   3.1877661327492538e+03   3.6351562611256936e+03   3.9213531803423421e+03   4.1453851766787766e+03   4.4901605064641062e+03   4.4734625714262429e+03   4.8590035654650765e+03   4.6232424635549914e+03   5.0312315852105221e+03   4.6698468305985361e+03   5.0717694289864849e+03   4.7990647704776720e+03   5.1411053190140628e+03   5.3132793143414592e+03   5.5115719945607279e+03   6.5038178532565016e+03   6.4800422618445764e+03   8.4871583723012991e+03   8.2020072324768025e+03   1.1236886202083271e+04   1.0668931012311548e+04   1.4696004034634130e+04   1.3814073686939881e+04   1.8821428760686533e+04   1.7577106192087223e+04   2.3585034731965217e+04   2.1914496156684476e+04   2.8966958923382474e+04   2.6794374370933321e+04   3.4950649043708647e+04   3.2191247393716039e+04   4.1520216581909779e+04   3.8082889037636567e+04   4.8659348390415813e+04   4.4448929859680597e+04   5.6351168103291966e+04   5.1270496311868861e+04   6.4578658638475186e+04   5.8530449647286361e+04   7.3325389646818323e+04   6.6213928558377564e+04   8.2576364101952044e+04   7.4308987091723277e+04   9.2318841199500836e+04   8.2807178338318190e+04   1.0254302138491163e+05   9.1703977855303470e+04   1.1324251067002999e+05   1.0099898269159389e+05   1.2441450174038274e+05   1.1069584706749913e+05   1.3605962822409646e+05   1.2080193165913364e+05   1.4818146619286030e+05   1.3132765433400540e+05   1.6078567892296071e+05   1.4228554338075270e+05   1.7387882841962343e+05   1.5368901356789173e+05   1.8746690771970412e+05   1.6555091018475921e+05   2.0155367617435590e+05   1.7788189171980976e+05   2.1613890009359422e+05   1.9068874283732809e+05   2.3121661083669495e+05   2.0397272259674809e+05   2.4677349146603167e+05   2.1772805815238896e+05   2.6278749008878879e+05   2.3194068706521523e+05   2.7922672961362934e+05   2.4658732583700327e+05   2.9604875684025703e+05   2.6163490190030300e+05   3.1320011859771213e+05   2.7704034619552066e+05   3.3061625437058962e+05   2.9275070396030304e+05   3.4822166428318090e+05   3.0870351798611466e+05   3.6593032648872753e+05   3.2482743778636085e+05   3.8364633777139668e+05   3.4104301619876933e+05   4.0126474435762700e+05   3.5726364425935375e+05   4.1867251841154636e+05   3.7339655518375005e+05   4.3574963217046339e+05   3.8934381453365961e+05   4.5237019533108850e+05   4.0500322203432710e+05   4.6840365534368018e+05   4.2026908985437034e+05   4.8371609596051479e+05   4.3503291441541089e+05   4.9817168122603721e+05   4.4918399209260050e+05   5.1163427147888864e+05   4.6261002876285714e+05   5.2396919832211296e+05   4.7519777143484616e+05   5.3504514686654240e+05   4.8683366987770260e+05   5.4473606605590379e+05   4.9740456639208959e+05   5.5292301207903819e+05   5.0679840701448492e+05   5.5949582503553445e+05   5.1490495822000457e+05   5.6435448427489761e+05   5.2161643588018848e+05   5.6741022288266837e+05   5.2682809858476871e+05   5.6858657810609916e+05   5.3043900929304410e+05   5.6782118846527277e+05   5.3235368976717524e+05   5.6506890537953738e+05   5.3248556175756094e+05   5.6030583048368758e+05   5.3076222347190359e+05   5.5353294571090164e+05   5.2713140047823556e+05   5.4477804694155708e+05   5.2156583420363651e+05   5.3409595074238745e+05   5.1406612961090275e+05   5.2156768351822515e+05   5.0466193491852330e+05   5.0729905312613276e+05   4.9341216512455983e+05   4.9141851426676213e+05   4.8040437652643444e+05   4.7407427252836985e+05   4.6575296422911272e+05   4.5543082807872369e+05   4.4959611877023830e+05   4.3566526950023434e+05   4.3209188759981818e+05   4.1496355126072600e+05   4.1341381941095239e+05   3.9351684879082826e+05   3.9374654513348767e+05   3.7151798420750286e+05   3.7328145121149620e+05   3.4915788328433526e+05   3.5221245835730160e+05   3.2662204561464785e+05   3.3073186905062379e+05   3.0408705839561590e+05   3.0902627306648827e+05   2.8171723713329848e+05   2.8727256778414000e+05   2.5966152067134521e+05   2.6563422520817508e+05   2.3805077701505457e+05   2.4425799908659785e+05   2.1699569006109083e+05   2.2327129879824381e+05   1.9658540151866860e+05   2.0278045833432465e+05   1.7688708754000239e+05   1.8287010858657651e+05   1.5794666897703617e+05   1.6360383373634907e+05   1.3979089950633707e+05   1.4502627863422016e+05   1.2243114996348237e+05   1.2716689119620198e+05   1.0586929555630646e+05   1.1004553585318217e+05   9.0106173672554243e+04   9.3680282479171568e+04   7.5153028000953840e+04   7.8097718580923727e+04   6.1046015829642165e+04   6.3346081054680981e+04   4.7862851015246284e+04   4.9511251908089580e+04   3.5738105933286337e+04   3.6734976223858510e+04   2.4867646592334571e+04   2.5233073930269780e+04   1.5480786891642212e+04   1.5308681848178927e+04   7.7728586485926135e+03   7.3660291231311021e+03   3.010160